ITEM: TIMESTEP
6000000
ITEM: NUMBER OF ATOMS
226
ITEM: BOX BOUNDS ff ff ff
-0.02 0.43
-0.02 0.06
-0.02 0.07
ITEM: ATOMS id type x y z vx vy vz fx fy fz radius mass 
1 1 0.0203899 0.0235339 0.0148967 0.0474445 -0.0465934 -0.024091 0 0 -1.43822e-06 0.0005 1.46608e-07 
4 1 0.0258137 0.0195811 0.0167243 -0.000965373 0.0184701 -0.00168207 6.25729e-09 9.12922e-07 -4.09867e-08 0.0005 1.46608e-07 
5 1 0.0141372 0.0228694 0.0206527 -0.196503 -0.0679921 0.127085 0 0 -1.43822e-06 0.0005 1.46608e-07 
6 1 0.0150751 0.022191 0.0148739 0.00584232 0.00334749 0.0062843 -2.23489e-06 5.53107e-07 -4.55337e-06 0.0005 1.46608e-07 
8 1 0.029918 0.0158131 0.0086341 0.000238025 -0.017199 0.0184229 -1.00422e-09 7.21177e-09 1.46097e-08 0.0005 1.46608e-07 
9 1 0.0226629 0.0164285 0.0162233 -0.0215885 -0.0863389 -0.0015312 0 0 -1.43822e-06 0.0005 1.46608e-07 
11 1 0.0155036 0.0204362 0.015728 0.0077935 -0.00258899 -0.000873725 -5.39711e-07 2.61937e-06 1.59029e-06 0.0005 1.46608e-07 
13 1 0.0189146 0.0242107 0.014178 0.000168497 0.00114566 -0.000510958 3.17026e-06 5.81109e-06 -7.97147e-06 0.0005 1.46608e-07 
14 1 0.0264561 0.023066 0.00985093 0.00426175 -0.00660629 -0.0201562 -6.52543e-09 2.06354e-09 -2.04307e-08 0.0005 1.46608e-07 
15 1 0.029448 0.0148878 0.0106638 -0.00256009 -0.00616853 0.0242846 -1.02781e-08 -1.24938e-08 -5.07981e-08 0.0005 1.46608e-07 
16 1 0.0202679 0.0228015 0.00941863 0.000138247 -0.0120979 -0.0216941 -1.07048e-09 -1.4745e-08 1.11195e-09 0.0005 1.46608e-07 
17 1 0.0236711 0.00745453 0.037045 -0.0753425 -0.347771 1.05531 0 0 -1.43822e-06 0.0005 1.46608e-07 
18 1 0.0283296 0.0165117 0.0149437 0.000314651 0.019961 0.0142728 -1.83911e-09 1.47811e-08 -7.94764e-09 0.0005 1.46608e-07 
19 1 0.0199812 0.0232348 0.0103458 0.00387761 0.00117286 -0.000613095 -4.97633e-07 -1.25447e-05 -8.86784e-06 0.0005 1.46608e-07 
21 1 0.0221891 0.0238407 0.0145986 -0.000598017 -0.00206226 0.000315501 -1.17405e-05 -8.32052e-06 3.63639e-06 0.0005 1.46608e-07 
22 1 0.0228656 0.0145857 0.0145441 0.000632657 -0.00273311 0.00575092 -4.40358e-07 4.79525e-07 -5.11293e-07 0.0005 1.46608e-07 
23 1 0.0203516 0.0238889 0.0132146 -0.00170901 0.00356743 0.00122938 3.47232e-06 -7.59548e-09 -3.97069e-06 0.0005 1.46608e-07 
26 1 0.015881 0.02247 0.01436 0.0056629 0.000269049 0.00473923 -6.13133e-06 2.59405e-06 -1.87567e-06 0.0005 1.46608e-07 
29 1 0.0176423 0.0146233 0.0119355 0.000752862 0.000607106 -0.000953317 -2.48388e-07 -5.48865e-08 4.67044e-07 0.0005 1.46608e-07 
30 1 0.0208117 0.0243599 0.0138488 -0.000333101 0.000640956 0.000166868 2.06735e-06 -1.03102e-06 -1.27057e-06 0.0005 1.46608e-07 
31 1 0.0180057 0.0159004 0.0146404 0.000197322 0.00620173 0.00790124 -3.86875e-07 5.65901e-07 -1.87817e-07 0.0005 1.46608e-07 
32 1 0.0201529 0.0194763 0.0211419 -0.0744203 -0.235848 0.32684 0 0 -1.43822e-06 0.0005 1.46608e-07 
33 1 0.0305819 0.0184533 0.00719495 0.00141894 -0.0211506 0.00350577 -1.46582e-08 -3.74291e-08 2.57746e-08 0.0005 1.46608e-07 
37 1 0.0229187 0.0236703 0.015123 -0.000556786 0.000149041 0.00059616 -7.09815e-06 -9.6171e-07 3.57207e-06 0.0005 1.46608e-07 
38 1 0.154353 0.0180393 0.00580707 8.98288e-15 -2.33605e-14 1.89553e-13 -3.19067e-19 -1.14111e-19 2.11758e-22 0.0005 1.46608e-07 
40 1 0.0215953 0.0215912 0.0153722 0.146237 -0.205485 0.0213806 0 0 -1.43822e-06 0.0005 1.46608e-07 
41 1 0.0173715 0.0242651 0.0141042 -0.000100894 -0.000226661 -0.00032054 1.09567e-06 -2.50942e-06 5.67437e-06 0.0005 1.46608e-07 
43 1 0.0185496 0.0240853 0.0128734 -0.000388356 0.000128531 -7.35343e-05 1.39809e-06 -4.69135e-07 2.58134e-06 0.0005 1.46608e-07 
44 1 0.015609 0.02279 0.0154702 0.0057398 0.0079592 0.00318074 8.46979e-07 -4.45339e-06 3.96527e-06 0.0005 1.46608e-07 
45 1 0.0313276 0.0216706 0.00804849 1.26167e-05 -0.0193658 -0.0176563 1.34827e-08 -1.19483e-08 6.97795e-09 0.0005 1.46608e-07 
47 1 0.0273729 0.0206788 0.0154935 0.00082959 0.0217186 -0.00750049 8.25835e-08 6.45714e-09 -1.11839e-08 0.0005 1.46608e-07 
48 1 0.0150971 0.0148107 0.0146213 0.000231626 1.59138e-05 -0.000448501 2.11766e-07 -1.09541e-07 -1.3627e-07 0.0005 1.46608e-07 
50 1 0.0181213 0.0146871 0.0142116 -0.00390673 -0.016164 -0.0160491 0 0 -1.43822e-06 0.0005 1.46608e-07 
52 1 0.0216785 0.0240054 0.0138704 6.45396e-05 -0.00113337 -0.000119247 6.64802e-08 -6.1922e-06 -4.54219e-06 0.0005 1.46608e-07 
53 1 0.0317064 0.0226842 0.00910765 0.00230985 -0.00879052 -0.0126146 -2.02621e-08 -1.00855e-07 -1.33221e-07 0.0005 1.46608e-07 
54 1 0.0296232 0.0151495 0.00975195 4.64139e-05 -0.00973907 0.0227702 4.12196e-10 1.14132e-08 5.78428e-09 0.0005 1.46608e-07 
55 1 0.0181334 0.0238187 0.0159202 0.00459544 0.00330963 0.00410147 8.73335e-07 1.08418e-07 -1.51974e-06 0.0005 1.46608e-07 
58 1 0.0228633 0.0232876 0.0141927 0.0124531 0.00446716 0.00937295 -2.3458e-06 -8.34711e-06 1.32034e-05 0.0005 1.46608e-07 
59 1 0.0308755 0.0196144 0.00725635 0.000213154 -0.0251239 -0.00399879 4.95374e-10 -6.38337e-09 1.48503e-08 0.0005 1.46608e-07 
61 1 0.0279217 0.01825 0.015716 0.00122098 0.0234681 0.00527988 -4.06715e-08 5.17957e-08 -7.83797e-09 0.0005 1.46608e-07 
62 1 0.0610421 0.0187951 0.0058864 6.13095e-15 2.71978e-14 1.94806e-13 -8.25791e-20 4.25105e-20 -3.38813e-21 0.0005 1.46608e-07 
63 1 0.0244613 0.0179625 0.0073423 0.000309747 -0.024709 0.00564047 -5.29757e-09 -5.18075e-09 1.6386e-08 0.0005 1.46608e-07 
66 1 0.0234924 0.0231887 0.0155787 -0.000282527 0.00174372 8.23313e-05 -1.78382e-06 5.87635e-07 -1.12925e-06 0.0005 1.46608e-07 
67 1 0.0272234 0.0213229 0.0151657 0.000881438 0.0175115 -0.0131343 -6.98185e-11 9.4329e-09 -3.39462e-08 0.0005 1.46608e-07 
70 1 0.0262014 0.00207356 0.0488384 -0.0130847 -0.917162 1.82959 0 0 -1.43822e-06 0.0005 1.46608e-07 
71 1 0.0213765 0.0106399 0.0258097 -0.146763 -0.874233 0.770417 0 0 -1.43822e-06 0.0005 1.46608e-07 
74 1 0.0205702 0.0239469 0.012315 -0.00192144 -0.000349879 0.00428398 1.06548e-06 2.46751e-07 -6.94173e-06 0.0005 1.46608e-07 
75 1 0.015943 0.0183666 0.0158906 0.00643125 0.0272499 0.000610837 0 0 -1.43822e-06 0.0005 1.46608e-07 
76 1 0.0171694 0.0211912 0.0165016 -0.0820964 -0.053804 -0.0294206 0 0 -1.43822e-06 0.0005 1.46608e-07 
77 1 0.0269993 0.0219969 0.0144667 0.000343395 0.0171103 -0.0176728 -3.81142e-09 4.91963e-10 -1.90538e-08 0.0005 1.46608e-07 
78 1 0.0170618 0.0226573 0.0151257 0.000439694 0.0140501 -0.0153945 -1.0412e-07 2.05201e-06 -3.11255e-07 0.0005 1.46608e-07 
79 1 0.0143893 0.0232255 0.0155033 -0.000594254 -0.000336115 0.00268718 1.33117e-07 4.33712e-07 -6.62408e-07 0.0005 1.46608e-07 
80 1 0.0194761 0.0242178 0.0131063 -0.00106598 0.00142862 0.00115992 6.40254e-06 3.10678e-06 7.52772e-07 0.0005 1.46608e-07 
81 1 0.0241842 0.0156846 0.00875897 0.00110113 -0.00806511 0.00889311 -7.22337e-08 4.16134e-08 -1.86758e-07 0.0005 1.46608e-07 
82 1 0.0279489 0.0190292 0.0158427 0.000106208 0.0240705 -0.000734399 -8.01422e-09 1.58316e-08 -4.4952e-09 0.0005 1.46608e-07 
83 1 0.0222852 0.0207046 0.0223116 0.0279426 -0.0731946 0.250853 0 0 -1.43822e-06 0.0005 1.46608e-07 
85 1 0.0318962 0.0231377 0.0100025 0.000679444 -0.00688459 -0.0177266 -6.01597e-09 -3.02387e-08 2.29899e-08 0.0005 1.46608e-07 
86 1 0.0190778 0.0172497 0.00759592 -6.69793e-05 -0.0211023 0.0102822 1.57765e-07 1.93888e-08 -2.74872e-09 0.0005 1.46608e-07 
88 1 0.0167979 0.0241926 0.0176265 -0.0978064 -0.0276124 -0.0152733 0 0 -1.43822e-06 0.0005 1.46608e-07 
92 1 0.019056 0.0181959 0.0166721 -0.0297126 -0.082582 -0.0039573 0 0 -1.43822e-06 0.0005 1.46608e-07 
93 1 0.0261417 0.0187745 0.0172435 -0.00591456 0.0317563 -0.00821435 -5.11679e-07 -3.35458e-07 -1.0812e-06 0.0005 1.46608e-07 
94 1 0.0235653 0.0150319 0.00998296 0.00114491 -0.00669623 0.0210627 1.31466e-06 1.61127e-06 3.42473e-07 0.0005 1.46608e-07 
95 1 0.0211853 0.0140688 0.0136781 0.000444069 0.00178195 -0.00294259 -1.98804e-07 1.45121e-07 -3.76416e-07 0.0005 1.46608e-07 
97 1 0.0212488 -0.00100321 0.0505878 -0.155258 -1.33398 2.01124 0 0 -1.43822e-06 0.0005 1.46608e-07 
99 1 0.0139189 0.0223509 0.0156198 -0.000617182 -0.000797053 0.000506522 8.04704e-08 3.44575e-07 4.04304e-08 0.0005 1.46608e-07 
100 1 0.0233564 0.0147671 0.0110539 0.000454305 -0.00350772 0.0248038 7.94447e-10 1.51783e-08 5.12055e-09 0.0005 1.46608e-07 
101 1 0.025844 0.0179126 0.0168321 0.0068942 0.0259829 -0.00426232 0 0 -1.43822e-06 0.0005 1.46608e-07 
102 1 0.0189122 0.0223491 0.015806 -0.0151333 -0.0180064 -0.0252909 0 0 -1.43822e-06 0.0005 1.46608e-07 
103 1 0.0200796 0.0151226 0.0149687 0.000154496 -0.000906867 -0.0025571 1.05237e-07 1.73942e-07 3.93823e-07 0.0005 1.46608e-07 
104 1 0.0187314 0.0143722 0.0134832 0.0168377 0.00564614 -0.010332 0 0 -1.43822e-06 0.0005 1.46608e-07 
105 1 0.0226691 0.0142776 0.0186301 -0.107952 -0.147598 0.0929406 0 0 -1.43822e-06 0.0005 1.46608e-07 
106 1 0.0289957 0.0149009 0.0121974 0.00168822 0.00798531 0.0216204 5.47649e-08 7.96592e-08 5.56132e-08 0.0005 1.46608e-07 
108 1 0.0212303 0.023915 0.0130528 -0.000387141 -0.000320471 0.000525849 -1.55431e-06 3.01103e-06 -1.58919e-06 0.0005 1.46608e-07 
109 1 0.0170943 0.0216584 0.0150964 0.00284838 0.0139465 -0.00997003 -5.9614e-07 1.48384e-06 -6.64002e-07 0.0005 1.46608e-07 
111 1 0.0191052 0.0239933 0.0160814 0.0158636 -0.0140525 -0.0356008 -6.46782e-08 -4.36134e-07 -9.54117e-07 0.0005 1.46608e-07 
112 1 0.0179747 0.0277509 0.0260133 -0.162144 0.186274 0.484668 0 0 -1.43822e-06 0.0005 1.46608e-07 
113 1 0.0169441 0.0199578 0.0165973 -0.082238 -0.0690649 -0.0562297 0 0 -1.43822e-06 0.0005 1.46608e-07 
114 1 0.014878 0.0212157 0.0176995 -0.122475 -0.0628445 0.0191377 0 0 -1.43822e-06 0.0005 1.46608e-07 
116 1 0.0174329 0.0240418 0.0130962 -0.000285979 -0.00144046 -0.000437407 -2.74508e-06 -1.77937e-06 4.27632e-06 0.0005 1.46608e-07 
119 1 0.0158956 0.0236068 0.0142823 -0.00146152 -0.000858477 0.000577614 4.5359e-07 5.94481e-08 -1.71529e-06 0.0005 1.46608e-07 
120 1 0.0145711 0.0205469 0.020099 -0.227896 -0.120031 0.13258 0 0 -1.43822e-06 0.0005 1.46608e-07 
123 1 0.02556 0.0205435 0.0166094 -0.026571 0.00733584 -0.0633477 0 0 -1.43822e-06 0.0005 1.46608e-07 
124 1 0.0171158 0.0238721 0.0164135 0.00181846 -0.000297608 -0.00223938 9.70248e-08 -1.53695e-07 -1.0593e-06 0.0005 1.46608e-07 
125 1 0.0131199 0.0199484 0.0199664 -0.211091 -0.0945156 0.129542 0 0 -1.43822e-06 0.0005 1.46608e-07 
127 1 0.0158971 0.0144533 0.0141393 0.000795274 -0.00148897 0.0015068 7.65161e-08 1.57478e-07 -2.87818e-07 0.0005 1.46608e-07 
128 1 0.0255083 0.0169791 0.0167026 0.0132209 0.0226684 0.0042739 -4.89748e-07 1.65486e-09 -1.32402e-06 0.0005 1.46608e-07 
129 1 0.0150891 0.0233129 0.0147946 -0.000122112 0.000772689 0.00327004 -5.3137e-07 -1.19754e-06 1.25828e-06 0.0005 1.46608e-07 
134 1 0.0190224 0.0180872 0.0072917 0.00128054 -0.0181944 0.00387111 -5.63474e-08 -3.95923e-08 4.85559e-08 0.0005 1.46608e-07 
135 1 0.0197953 0.0143541 0.0138491 -0.00404854 0.000698045 -0.00403329 1.41911e-06 -1.2971e-06 -8.14089e-07 0.0005 1.46608e-07 
136 1 0.0249803 0.0164477 0.0160401 0.00955251 0.0195118 0.010692 -4.09812e-07 -2.73189e-07 -7.14846e-08 0.0005 1.46608e-07 
137 1 0.0203457 0.0233596 0.0120325 0.0010012 0.00265403 -0.0233357 4.80946e-07 8.32773e-06 -5.45072e-06 0.0005 1.46608e-07 
138 1 0.0166054 0.0228534 0.0137945 0.00172565 -0.000210157 0.000138408 -4.75269e-07 8.58697e-08 3.68576e-07 0.0005 1.46608e-07 
141 1 0.0345798 0.0189584 0.00573933 -8.27242e-15 -4.74527e-14 1.83895e-13 6.7895e-21 -3.54695e-21 -4.23516e-22 0.0005 1.46608e-07 
143 1 0.0156049 0.0223866 0.0164671 0.0194768 -0.00241921 -0.0223065 3.84772e-06 2.27713e-06 1.14023e-05 0.0005 1.46608e-07 
144 1 0.0166262 0.0156491 0.0143671 0.00544475 0.00139105 -0.000186574 -2.65905e-09 -6.72735e-07 1.6097e-07 0.0005 1.46608e-07 
145 1 0.0301968 0.0166836 0.00790875 0.00131616 -0.0201634 0.0139929 -3.13569e-08 -2.3631e-08 -2.36379e-08 0.0005 1.46608e-07 
146 1 0.0238194 0.0176321 0.0188022 0.216562 -0.33439 0.242429 0 0 -1.43822e-06 0.0005 1.46608e-07 
147 1 0.0248416 0.0125438 0.0278824 -0.0515722 -0.315471 0.789751 0 0 -1.43822e-06 0.0005 1.46608e-07 
149 1 0.0186755 0.0188124 0.00721083 0.00159715 -0.0215159 0.00188002 -2.06237e-08 1.72681e-08 1.66367e-08 0.0005 1.46608e-07 
150 1 0.0245188 0.015561 0.0160068 0.0155005 0.016379 0.00629653 0 0 -1.43822e-06 0.0005 1.46608e-07 
152 1 0.0159334 0.0189187 0.0178832 -0.0781572 -0.121862 0.0344908 0 0 -1.43822e-06 0.0005 1.46608e-07 
155 1 0.0262362 0.0233744 0.0113954 0.00117788 0.000245954 -0.0232917 -1.94668e-08 -5.26808e-09 -4.75981e-08 0.0005 1.46608e-07 
156 1 0.0116307 0.0115628 0.0304683 -0.738934 -0.170798 0.780008 0 0 -1.43822e-06 0.0005 1.46608e-07 
157 1 0.0161308 0.0233351 0.0167854 0.000107906 -0.000408269 -0.00279113 0 0 -1.43822e-06 0.0005 1.46608e-07 
158 1 0.0134386 0.0216124 0.0160929 -0.000497143 -0.00192104 -0.00114613 2.07355e-07 5.01318e-07 2.8796e-08 0.0005 1.46608e-07 
159 1 0.0229725 0.0191697 0.0175375 -0.00783705 -0.260218 0.191789 0 0 -1.43822e-06 0.0005 1.46608e-07 
160 1 0.0229977 0.00957134 0.0299348 -0.228397 -0.524297 0.88508 0 0 -1.43822e-06 0.0005 1.46608e-07 
162 1 0.0176087 0.0191219 0.0165049 -0.0603146 -0.062664 -0.0672007 0 0 -1.43822e-06 0.0005 1.46608e-07 
164 1 0.0219503 0.02327 0.0128676 8.86604e-05 -0.000475317 0.000529646 -2.48632e-06 -3.54877e-07 5.44257e-06 0.0005 1.46608e-07 
166 1 0.0189481 0.0223722 0.0191113 -0.0803866 0.0146525 0.134737 0 0 -1.43822e-06 0.0005 1.46608e-07 
167 1 0.0197293 0.0237271 0.013949 -0.000553786 0.00391294 -0.00038301 1.3625e-06 3.02088e-06 -5.09592e-06 0.0005 1.46608e-07 
169 1 0.01646 0.0231397 0.0158615 0.0074648 0.00514225 0.000244572 1.51867e-06 4.00202e-06 3.67574e-07 0.0005 1.46608e-07 
170 1 0.0188521 0.0213078 0.0204368 -0.136352 -0.0244361 0.166625 0 0 -1.43822e-06 0.0005 1.46608e-07 
171 1 0.0279482 0.0169336 0.0272696 0.11547 -0.233996 0.549461 0 0 -1.43822e-06 0.0005 1.46608e-07 
172 1 0.0166278 0.0238348 0.013632 -0.00114938 -0.00114974 0.000117597 3.12007e-06 1.63837e-06 7.67079e-07 0.0005 1.46608e-07 
173 1 0.0190478 0.00818428 0.0306424 -0.215333 -0.232754 0.724494 0 0 -1.43822e-06 0.0005 1.46608e-07 
176 1 0.0195068 0.0221026 0.00846982 0.000550737 -0.0150979 -0.0171028 6.0539e-09 2.52027e-07 2.97872e-07 0.0005 1.46608e-07 
177 1 0.0249495 0.0199457 0.00728838 -7.6485e-05 -0.0246222 -0.00681632 5.65306e-09 -3.60668e-09 1.19307e-08 0.0005 1.46608e-07 
178 1 0.0192019 0.0212707 0.00783088 0.000979966 -0.0190792 -0.0101539 -3.21963e-07 -9.31197e-08 -7.06797e-07 0.0005 1.46608e-07 
180 1 0.0161051 0.0211247 0.016426 -0.0888821 -0.0561205 -0.0339044 0 0 -1.43822e-06 0.0005 1.46608e-07 
181 1 0.0232711 0.0165026 0.0151564 9.92717e-05 0.0220707 0.0154017 9.56197e-08 1.30274e-07 -1.41821e-07 0.0005 1.46608e-07 
182 1 0.0168959 0.017998 0.0158354 -0.00610267 -0.0122869 -0.00699731 0 0 -1.43822e-06 0.0005 1.46608e-07 
183 1 0.0176984 0.0126103 0.0216906 -0.0559413 0.0204732 0.249677 0 0 -1.43822e-06 0.0005 1.46608e-07 
184 1 0.02441 0.0129976 0.0292867 0.0990947 -0.560757 0.99328 0 0 -1.43822e-06 0.0005 1.46608e-07 
187 1 0.0162654 0.021187 0.0154015 0.0100668 0.00681564 -0.00463561 -7.8598e-07 1.75574e-06 2.25901e-07 0.0005 1.46608e-07 
190 1 0.0212375 0.0234026 0.0120049 -0.00108278 -0.00107755 -0.00665198 3.26847e-07 8.27786e-07 1.90208e-07 0.0005 1.46608e-07 
191 1 0.0257563 0.0228641 0.00942077 0.00148064 -0.00668448 -0.0131298 5.9739e-08 -2.54931e-08 2.39561e-09 0.0005 1.46608e-07 
193 1 0.0260594 0.0135687 0.0300326 0.21066 -0.498516 0.988806 0 0 -1.43822e-06 0.0005 1.46608e-07 
194 1 0.0220902 0.0176741 0.0157266 0.000698728 0.0245676 0.00854472 -5.03506e-07 2.54584e-06 1.30856e-06 0.0005 1.46608e-07 
195 1 0.0176457 0.0150613 0.0150481 0.00818446 -0.00528189 -0.00954087 -3.64458e-07 -8.97712e-07 5.808e-08 0.0005 1.46608e-07 
197 1 0.0935581 0.0183371 0.00588747 1.06123e-14 1.89524e-14 2.48644e-13 1.73509e-20 -7.58359e-21 -2.11758e-22 0.0005 1.46608e-07 
199 1 0.0173838 0.0152565 0.0138438 0.000566242 -0.0051073 -0.00484534 0 0 -1.43822e-06 0.0005 1.46608e-07 
201 1 0.0181728 0.022937 0.0163904 -0.0017513 0.00757284 0.0131234 0 0 -1.43822e-06 0.0005 1.46608e-07 
204 1 0.118145 0.0201427 0.00585321 -1.10736e-15 -1.75123e-14 8.40188e-14 6.77626e-21 -1.58819e-22 0 0.0005 1.46608e-07 
205 1 0.027518 0.0198944 0.0157067 0.000357982 0.0235084 -0.00450426 -3.27778e-09 1.11675e-08 -1.74337e-08 0.0005 1.46608e-07 
206 1 0.0177605 0.00932133 0.0282438 -0.352635 -0.263591 0.710812 0 0 -1.43822e-06 0.0005 1.46608e-07 
209 1 0.0232236 0.0227635 0.0228946 0.1452 0.0814065 0.614791 0 0 -1.43822e-06 0.0005 1.46608e-07 
212 1 0.0200685 0.0214904 0.00793748 0.000405525 -0.00836892 -0.00728926 -4.21005e-07 -4.47769e-07 -2.87815e-07 0.0005 1.46608e-07 
213 1 0.0197834 0.0165473 0.0161043 0.000143458 -0.00080514 0.00010076 -3.51157e-08 -1.06509e-07 -2.36311e-08 0.0005 1.46608e-07 
214 1 0.0176329 0.00446434 0.0428688 -0.236503 -0.981125 1.51208 0 0 -1.43822e-06 0.0005 1.46608e-07 
215 1 0.0171914 0.0226325 0.0163497 -0.00653922 -0.0202958 -0.0109747 0 0 -1.43822e-06 0.0005 1.46608e-07 
218 1 0.0181418 0.0141952 0.0126902 0.000426743 -0.000376078 -0.00305193 0 0 -1.43822e-06 0.0005 1.46608e-07 
219 1 0.0186556 0.0126976 0.019585 -0.4267 -0.332777 0.182056 0 0 -1.43822e-06 0.0005 1.46608e-07 
221 1 0.0203772 0.0244115 0.017385 0.0152622 -0.00469126 0.00118322 0 0 -1.43822e-06 0.0005 1.46608e-07 
222 1 0.0244457 0.0170569 0.0166786 -0.0124908 0.00753963 -0.0488273 0 0 -1.43822e-06 0.0005 1.46608e-07 
224 1 0.0194138 0.0141132 0.0127826 0.00596753 0.0258542 -0.0429262 -4.53211e-08 4.45694e-07 -7.39876e-07 0.0005 1.46608e-07 
225 1 0.0195134 0.0157074 0.0155498 -0.000110137 -0.00341902 -0.00195446 1.24747e-08 -2.73884e-07 -1.35548e-07 0.0005 1.46608e-07 
226 1 0.0281008 0.0173308 0.0154129 0.000112482 0.0233873 0.0116784 -2.62354e-09 1.32885e-08 -9.48896e-09 0.0005 1.46608e-07 
227 1 0.0241005 0.016306 0.00817362 0.00104491 -0.0167284 0.0134641 2.6739e-08 6.65661e-08 -3.50992e-08 0.0005 1.46608e-07 
229 1 0.0292471 0.0147581 0.0113858 0.000826352 -0.00215474 0.0151853 4.28684e-08 2.96396e-07 8.93888e-08 0.0005 1.46608e-07 
230 1 0.0216591 0.0136206 0.0194023 -0.0977634 -0.0706199 0.129279 0 0 -1.43822e-06 0.0005 1.46608e-07 
233 1 0.0132473 0.0229754 0.0212513 -0.177397 -0.103185 0.216928 0 0 -1.43822e-06 0.0005 1.46608e-07 
234 1 0.0197052 0.0234433 0.0196174 -0.10018 0.063451 0.123648 0 0 -1.43822e-06 0.0005 1.46608e-07 
235 1 0.0260027 0.0232629 0.0105406 0.0015617 -0.00584496 -0.0218853 -2.76889e-08 -2.43075e-08 -5.91468e-08 0.0005 1.46608e-07 
242 1 0.0156515 0.0230169 0.0135129 0.00656012 0.00163526 -0.00366928 -5.36997e-07 -5.7341e-07 7.63789e-07 0.0005 1.46608e-07 
244 1 0.0163595 0.0232666 0.0128771 0.00605418 0.00148195 -0.00552314 1.79368e-06 -1.1402e-06 3.64236e-06 0.0005 1.46608e-07 
245 1 0.0227792 0.0152094 0.0137672 0.00187363 0.00973371 0.0171849 1.16857e-07 -4.34835e-07 -1.67897e-06 0.0005 1.46608e-07 
246 1 0.0176551 0.017555 0.0164468 0.000283608 -0.118961 0.0042446 0 0 -1.43822e-06 0.0005 1.46608e-07 
249 1 0.0198436 0.0193475 0.0171306 -0.0418003 -0.0872537 -0.0394407 0 0 -1.43822e-06 0.0005 1.46608e-07 
250 1 0.0265976 0.0229967 0.0131738 4.20414e-05 0.0137611 -0.0219734 2.65473e-09 -1.15983e-08 -7.43414e-09 0.0005 1.46608e-07 
252 1 0.0186796 0.0153479 0.0151308 0.000233832 -0.00286774 -0.00139949 7.52611e-07 -6.27012e-07 -6.56244e-07 0.0005 1.46608e-07 
253 1 0.0191634 0.0203717 0.0074187 -0.000465023 -0.0232911 -0.00806521 5.69155e-08 -8.21804e-07 -2.12278e-07 0.0005 1.46608e-07 
255 1 0.0166689 0.021493 0.018013 -0.157646 -0.0924792 0.0241369 0 0 -1.43822e-06 0.0005 1.46608e-07 
256 1 0.0203766 0.0140615 0.0130899 -0.0010404 9.44466e-05 -0.000929685 1.52675e-07 6.76809e-10 -7.06118e-07 0.0005 1.46608e-07 
257 1 0.0202985 0.0237224 0.016052 0.00960338 -0.000871996 0.00200462 0 0 -1.43822e-06 0.0005 1.46608e-07 
258 1 0.0227224 0.0162026 0.0191906 -0.0996217 -0.153597 0.190944 0 0 -1.43822e-06 0.0005 1.46608e-07 
259 1 0.0235263 0.0155509 0.0143374 0.0101727 0.0082601 0.00829797 -3.55563e-07 1.70991e-07 -1.66692e-06 0.0005 1.46608e-07 
260 1 0.0186433 0.0146232 0.0119358 0.000614489 0.00207381 -0.00358775 -5.2882e-08 5.13013e-07 -6.34544e-07 0.0005 1.46608e-07 
261 1 0.0233793 0.0191786 0.020372 0.0973824 -0.174734 0.193088 0 0 -1.43822e-06 0.0005 1.46608e-07 
263 1 0.0194687 0.00972055 0.0273308 -0.135211 -0.636939 0.60832 0 0 -1.43822e-06 0.0005 1.46608e-07 
264 1 0.0170895 0.0144262 0.0127451 -0.00139124 0.00114638 -0.00203477 -3.72629e-07 3.4593e-07 2.46777e-07 0.0005 1.46608e-07 
265 1 0.0254118 0.0210289 0.0199401 0.15691 -0.100988 0.11808 0 0 -1.43822e-06 0.0005 1.46608e-07 
266 1 0.019379 0.0232119 0.0147237 0.000826949 -0.000442301 0.00277592 -1.39018e-05 -4.14285e-06 -7.44703e-06 0.0005 1.46608e-07 
267 1 0.0168453 0.023496 0.0145671 -0.000730248 -0.00060833 8.62138e-05 -1.49852e-06 8.49184e-07 -1.55693e-06 0.0005 1.46608e-07 
268 1 0.0223056 0.0167851 0.0153226 0.000285318 0.0223053 0.0133984 7.39778e-07 1.22895e-06 2.44347e-06 0.0005 1.46608e-07 
270 1 0.0141984 0.0211042 0.0169066 -0.0955883 -0.0296334 -0.0430607 0 0 -1.43822e-06 0.0005 1.46608e-07 
271 1 0.0239226 0.0153477 0.0152328 0.013783 0.0134783 0.00841878 -1.02155e-06 5.09879e-08 -8.84068e-07 0.0005 1.46608e-07 
272 1 0.01691 0.0146664 0.0144978 -0.00117124 -0.00152355 -0.000760934 0 0 -1.43822e-06 0.0005 1.46608e-07 
275 1 0.0232459 0.0154671 0.0220201 0.156864 -0.447664 0.444901 0 0 -1.43822e-06 0.0005 1.46608e-07 
276 1 0.016351 0.0221565 0.0156893 0.0148472 0.0064308 -0.0283046 1.54039e-06 -1.55498e-06 7.83233e-07 0.0005 1.46608e-07 
278 1 0.0178291 0.02333 0.0145537 -0.00125829 -0.00166487 0.000353931 -3.54883e-06 -2.64912e-06 3.16561e-06 0.0005 1.46608e-07 
281 1 0.0179961 0.0162019 0.0159731 -0.0796651 -0.123792 -0.112302 0 0 -1.43822e-06 0.0005 1.46608e-07 
283 1 0.0174582 0.0165426 0.0151768 -0.00269673 0.00602039 0.0069708 0 0 -1.43822e-06 0.0005 1.46608e-07 
284 1 0.0236415 0.0169865 0.0160804 -0.0381645 0.00220337 -0.0121714 0 0 -1.43822e-06 0.0005 1.46608e-07 
285 1 0.0184365 0.0143679 0.0151136 -0.0148002 -0.00531741 -0.0173714 -5.45111e-08 -1.70326e-07 -1.14563e-06 0.0005 1.46608e-07 
287 1 0.0239305 0.0226929 0.0151445 -0.00177725 0.00582087 -0.000178244 -1.69407e-06 2.5816e-06 -3.23786e-06 0.0005 1.46608e-07 
288 1 0.0202799 0.0124452 0.0226716 -0.14734 0.0545453 0.21655 0 0 -1.43822e-06 0.0005 1.46608e-07 
290 1 0.0148657 0.0227174 0.0140234 0.00596869 0.0038914 -0.00145891 -1.78368e-06 2.33219e-07 -2.00591e-06 0.0005 1.46608e-07 
291 1 0.0152775 0.0213312 0.0153431 0.00735199 0.00141438 0.00912911 0 0 -1.43822e-06 0.0005 1.46608e-07 
292 1 0.0206002 0.015751 0.0155894 -0.00037221 0.000631834 0.00147672 -3.82754e-08 -2.46236e-07 -1.57873e-07 0.0005 1.46608e-07 
294 1 0.0239033 0.0209877 0.0229397 0.162224 -0.20935 0.486973 0 0 -1.43822e-06 0.0005 1.46608e-07 
295 1 0.0242239 0.0167515 0.0152987 4.01189e-05 0.0230897 0.0140366 -1.32399e-08 5.47696e-08 -3.26883e-07 0.0005 1.46608e-07 
296 1 0.0245295 0.0166061 0.0193285 0.070156 -0.429994 0.190233 0 0 -1.43822e-06 0.0005 1.46608e-07 
297 1 0.0286164 0.0156953 0.0142113 0.000888913 0.0123077 0.0182032 -9.65926e-11 1.59286e-08 -1.89624e-08 0.0005 1.46608e-07 
298 1 0.0188294 0.0213204 0.0162448 -0.0129569 0.00395714 0.0139439 0 0 -1.43822e-06 0.0005 1.46608e-07 
300 1 0.0201236 0.0112755 0.0251388 -0.233874 -0.123844 0.367963 0 0 -1.43822e-06 0.0005 1.46608e-07 
301 1 0.0255778 0.0223095 0.00878926 0.00144985 -0.0137334 -0.0137534 -2.33023e-09 -8.56093e-09 -5.97983e-09 0.0005 1.46608e-07 
302 1 0.0294233 0.00773298 0.0455654 0.341157 -0.85243 1.72692 0 0 -1.43822e-06 0.0005 1.46608e-07 
303 1 0.019852 0.0226041 0.015377 0.00922511 -0.00771946 -0.0113261 0 0 -1.43822e-06 0.0005 1.46608e-07 
304 1 0.0164743 0.0163636 0.0150533 -0.000818605 -0.00128033 -0.00362818 1.17735e-08 -3.12179e-07 -2.31794e-07 0.0005 1.46608e-07 
307 1 0.0206161 0.0147612 0.0157312 -0.000179575 0.000299834 -0.00161054 -1.41708e-07 -1.94287e-07 -1.9294e-07 0.0005 1.46608e-07 
308 1 0.0191078 0.014733 0.0144686 -0.00334719 -0.00369008 -0.00402143 1.58073e-06 2.89699e-06 -5.09859e-06 0.0005 1.46608e-07 
312 1 0.0201926 0.0234133 0.0112169 0.00252196 -0.000870466 -0.0144692 1.9825e-05 -5.77942e-05 -0.00014677 0.0005 1.46608e-07 
313 1 0.0179799 0.0244612 0.0178147 -0.0780049 -0.00769679 6.63612e-05 0 0 -1.43822e-06 0.0005 1.46608e-07 
314 1 0.0181146 0.0226955 0.0152934 -0.0200526 0.00293607 -0.00547969 3.55446e-07 9.20723e-07 -8.92513e-07 0.0005 1.46608e-07 
315 1 0.00842114 0.0323835 0.0435188 -9.72922e-317 -9.70169e-317 -1.69736e-12 0 0 0 0.0005 1.46608e-07 
316 1 0.0284101 0.019779 0.0157617 0.000129396 0.0229687 -0.00486445 -4.16597e-09 9.50807e-09 -1.48301e-08 0.0005 1.46608e-07 
317 1 0.0162149 0.0196643 0.0159119 -0.00959119 -0.00797688 -0.00128013 1.33606e-07 4.76705e-07 4.76968e-09 0.0005 1.46608e-07 
318 1 0.0169054 0.0148748 0.0199557 -0.188174 0.247979 0.0464983 0 0 -1.43822e-06 0.0005 1.46608e-07 
320 1 0.0790874 0.0180279 0.00607637 6.63056e-16 4.06705e-15 1.90455e-14 -1.78803e-20 4.87044e-21 -6.35275e-22 0.0005 1.46608e-07 
321 1 0.0193596 0.00612954 0.0362421 -0.28129 -0.594932 1.14277 0 0 -1.43822e-06 0.0005 1.46608e-07 
322 1 0.022519 0.015999 0.0147428 5.05569e-05 0.0195448 0.0185372 -1.31085e-08 1.23811e-07 2.11825e-07 0.0005 1.46608e-07 
323 1 0.016174 0.0173126 0.0155979 0.00127858 0.0195076 0.00866303 -1.42107e-08 6.74359e-08 9.16584e-09 0.0005 1.46608e-07 
325 1 0.0172739 0.0235713 0.015473 0.00836982 0.000599291 -0.00148797 2.55686e-06 6.17488e-07 -1.8709e-06 0.0005 1.46608e-07 
326 1 0.0213574 0.0234904 0.0159965 -0.02343 -0.0244668 -0.0979725 -1.2093e-07 -3.33735e-07 -1.091e-06 0.0005 1.46608e-07 
327 1 0.0182443 0.0205532 0.0165138 -0.0363599 -0.00604128 0.00345145 0 0 -1.43822e-06 0.0005 1.46608e-07 
328 1 0.0248217 0.0186283 0.0168883 0.130046 -0.281977 -0.0498429 0 0 -1.43822e-06 0.0005 1.46608e-07 
329 1 0.0483695 0.0188487 0.00601991 -8.52124e-15 1.86e-14 1.92617e-13 7.84326e-19 3.53424e-19 1.48231e-21 0.0005 1.46608e-07 
331 1 0.0148697 0.0221093 0.015849 0.000771362 0.00144293 0.00305291 -2.17876e-06 -8.03332e-07 -8.39663e-06 0.0005 1.46608e-07 
333 1 0.0193898 0.0145489 0.0154101 -0.00895026 -0.001692 -0.0177006 -3.60876e-06 -2.05313e-06 5.40779e-06 0.0005 1.46608e-07 
334 1 0.012552 0.0237479 0.0242435 -0.360795 0.0335145 0.376139 0 0 -1.43822e-06 0.0005 1.46608e-07 
335 1 0.016722 0.0141823 0.0136431 -0.000176668 0.00106551 -0.00302905 0 0 -1.43822e-06 0.0005 1.46608e-07 
336 1 0.0185979 0.0237376 0.0150383 -0.0015549 -0.00218899 0.00290533 -1.62047e-06 1.83789e-06 -6.39932e-06 0.0005 1.46608e-07 
337 1 0.0181493 0.0237929 0.0137297 -7.03637e-05 -0.00027129 7.21264e-05 3.56719e-06 -1.42823e-06 6.04221e-06 0.0005 1.46608e-07 
338 1 0.0160126 0.0222609 0.0178994 -0.132388 0.011788 -0.0273817 0 0 -1.43822e-06 0.0005 1.46608e-07 
340 1 0.0206409 0.0146146 0.014315 -0.00319085 -0.000189554 -0.00420224 2.13627e-07 -1.66736e-07 -1.78168e-07 0.0005 1.46608e-07 
