ITEM: TIMESTEP
4000000
ITEM: NUMBER OF ATOMS
261
ITEM: BOX BOUNDS ff ff ff
-0.02 0.43
-0.02 0.06
-0.02 0.07
ITEM: ATOMS id type x y z vx vy vz fx fy fz radius mass 
1 1 0.0215487 0.024209 0.0141086 0.00858584 -0.00020664 0.00130976 1.58666e-05 -3.46664e-06 -1.29118e-06 0.0005 1.46608e-07 
2 1 0.0208659 0.0231899 0.0102594 0.000125593 -0.00350082 -0.0119539 -4.54995e-09 2.64571e-09 1.42323e-08 0.0005 1.46608e-07 
3 1 0.0249963 0.018841 0.0167452 0.000933052 0.00140503 0.000988553 -4.85532e-08 8.5763e-07 5.47595e-07 0.0005 1.46608e-07 
4 1 0.023829 0.0200578 0.0158277 0.00245207 0.0172151 -0.00432057 -2.59706e-07 9.11614e-07 -1.88372e-07 0.0005 1.46608e-07 
5 1 0.0177611 0.0202799 0.015778 0.00776807 0.00521857 -0.00280477 -1.50374e-07 -1.64821e-06 2.09837e-06 0.0005 1.46608e-07 
6 1 0.0160209 0.015849 0.0160875 -0.116115 -0.109848 -0.100078 0 0 -1.43822e-06 0.0005 1.46608e-07 
7 1 0.0235747 0.0175462 0.0171237 0.00249197 0.00221106 0.00125481 -8.51956e-06 4.94868e-06 9.48516e-06 0.0005 1.46608e-07 
8 1 0.0278854 0.0199565 0.0157382 0.000296844 0.0225371 -0.00545274 -2.55406e-09 1.94067e-08 -2.38383e-08 0.0005 1.46608e-07 
9 1 0.0203412 0.0145205 0.0161238 -0.00293364 0.0122105 -0.0269497 -1.14645e-07 4.0642e-07 -9.06645e-07 0.0005 1.46608e-07 
10 1 0.0239013 0.019653 0.0167587 -0.00231413 0.00809292 -0.0210409 0 0 -1.43822e-06 0.0005 1.46608e-07 
11 1 0.020762 0.0159925 0.015785 -0.00509666 -0.00387436 -0.00664815 -1.99121e-07 3.94539e-07 4.5827e-07 0.0005 1.46608e-07 
13 1 0.0177475 0.0243244 0.0139954 0.00359507 -0.00118709 -0.000185128 -6.52235e-06 -6.28655e-06 5.63925e-06 0.0005 1.46608e-07 
14 1 0.0192337 0.0175693 0.016542 0.00206171 0.00153333 -0.000566822 -2.48453e-08 6.45802e-08 4.92224e-08 0.0005 1.46608e-07 
15 1 0.0274444 0.0215845 0.0149267 0.00134408 0.0156873 -0.0134964 2.04001e-07 4.49491e-07 -4.12595e-07 0.0005 1.46608e-07 
16 1 0.0145849 0.0189217 0.0168515 0.0411244 0.00348432 -0.0436699 0 0 -1.43822e-06 0.0005 1.46608e-07 
17 1 0.0171816 0.0146616 0.0143392 0.0150559 0.00194308 -0.0144171 1.85763e-07 5.71e-08 -3.96122e-07 0.0005 1.46608e-07 
18 1 0.026186 0.0230409 0.00978526 0.00495841 -0.00169376 -0.00809184 -3.59963e-08 -5.32781e-08 5.93267e-08 0.0005 1.46608e-07 
19 1 0.0190035 0.0241015 0.0129396 -4.90628e-05 -0.000375871 -0.000678269 2.35542e-09 1.87711e-08 3.36454e-08 0.0005 1.46608e-07 
21 1 0.0226687 0.0234354 0.0140727 0.00067536 -0.00376536 -0.00206191 -1.71677e-06 5.26567e-06 1.97243e-06 0.0005 1.46608e-07 
22 1 0.0186638 0.0140998 0.0128047 0.000398196 0.00172488 -0.00277348 -2.08847e-07 1.24051e-07 5.13139e-07 0.0005 1.46608e-07 
23 1 0.0196512 0.0242411 0.0140728 0.00565774 -0.000862583 0.00189304 -2.83042e-06 -6.30062e-06 7.95436e-06 0.0005 1.46608e-07 
26 1 0.0205048 0.0235492 0.0147596 -0.0175412 0.00690316 -0.0467308 0 0 -1.43822e-06 0.0005 1.46608e-07 
28 1 0.0182999 0.0149444 0.0131979 -0.000149646 -1.88454e-05 0.000320564 1.0554e-08 -8.22391e-07 -4.6645e-07 0.0005 1.46608e-07 
29 1 0.0158391 0.0179601 0.0168072 -0.0415494 -0.0875896 -0.0577729 0 0 -1.43822e-06 0.0005 1.46608e-07 
30 1 0.0206017 0.0243033 0.0138871 0.00705663 -0.000899573 0.00240823 2.45297e-06 -3.81329e-06 7.85799e-06 0.0005 1.46608e-07 
31 1 0.0222772 0.0183856 0.0158959 0.00680661 0.00944077 0.000825031 -3.34532e-07 3.87719e-07 1.53688e-07 0.0005 1.46608e-07 
32 1 0.0172273 0.0150104 0.0133563 0.00321693 0.00595901 0.0115246 7.55484e-08 2.64789e-08 -1.38323e-06 0.0005 1.46608e-07 
33 1 0.0284108 0.0175348 0.0155295 -0.000171158 0.0236513 0.0108756 1.04861e-10 9.07957e-09 -1.39406e-08 0.0005 1.46608e-07 
36 1 0.0235515 0.0209709 0.0155117 -0.00621595 0.0122577 -0.00650374 2.75101e-07 -3.01721e-08 7.95294e-08 0.0005 1.46608e-07 
37 1 0.0227668 0.0235241 0.0152555 -0.000524012 -0.000680689 -0.000473129 7.93535e-07 -2.09429e-06 9.17076e-07 0.0005 1.46608e-07 
38 1 0.154353 0.0180393 0.00580707 9.01251e-15 -2.34054e-14 1.89546e-13 -4.34118e-19 -2.36905e-20 1.90582e-20 0.0005 1.46608e-07 
40 1 0.0217605 0.0235427 0.0152072 -0.00950516 -0.000474324 -0.00664861 0 0 -1.43822e-06 0.0005 1.46608e-07 
41 1 0.0168837 0.0241264 0.0143797 0.000331448 0.000881356 -0.00029584 -5.24351e-06 -2.24191e-07 8.11504e-06 0.0005 1.46608e-07 
42 1 0.024905 0.021677 0.0160525 -6.31749e-05 0.000577261 -0.0011364 -3.1947e-07 -2.75993e-06 -2.50473e-06 0.0005 1.46608e-07 
43 1 0.0173594 0.024041 0.0130879 -0.000302643 -0.00142021 0.000181482 -7.12332e-07 -9.79204e-08 4.29722e-07 0.0005 1.46608e-07 
44 1 0.0145863 0.0218239 0.0170753 0.00787492 0.00649647 -0.00290747 2.62875e-07 -3.1252e-07 2.78043e-07 0.0005 1.46608e-07 
45 1 0.0292171 0.0151237 0.012971 0.000173858 0.00840239 0.0244902 -1.33933e-09 1.65299e-08 -1.31423e-09 0.0005 1.46608e-07 
46 1 0.0243867 0.0204472 0.0173432 -0.0163046 -0.0134567 -0.00863815 -3.71078e-06 3.92121e-06 1.55466e-05 0.0005 1.46608e-07 
47 1 0.0248088 0.0178428 0.00741198 0.00146632 -0.024349 0.00430439 -7.13297e-09 -1.04349e-09 5.5761e-08 0.0005 1.46608e-07 
48 1 0.0253072 0.0169603 0.0163107 -0.000660917 -0.00255934 -0.000744282 -1.3855e-08 -2.36373e-08 2.59627e-08 0.0005 1.46608e-07 
49 1 0.0142167 0.0152977 0.0151702 0.00522027 -0.00553318 -0.00477715 1.35599e-07 -1.64974e-07 -1.04331e-07 0.0005 1.46608e-07 
50 1 0.0188609 0.0180496 0.00728739 0.000846894 -0.0131882 0.00385308 -4.05981e-08 -2.09415e-07 2.77542e-08 0.0005 1.46608e-07 
51 1 0.0227188 0.0152827 0.0158758 0.0110117 -0.00607901 -0.0161648 0 0 -1.43822e-06 0.0005 1.46608e-07 
52 1 0.0219561 0.0236051 0.013454 0.000157795 -0.00172062 -0.00379829 -8.32009e-07 -1.23351e-06 -2.24787e-06 0.0005 1.46608e-07 
53 1 0.0295219 0.0147857 0.0114486 0.00267671 0.00088585 0.0208794 -2.19425e-08 2.89802e-08 6.89966e-08 0.0005 1.46608e-07 
54 1 0.0276484 0.0208893 0.0154096 0.00183415 0.0143372 -0.00602872 3.88568e-08 2.10637e-08 -1.12334e-07 0.0005 1.46608e-07 
55 1 0.0179392 0.0179816 0.0158189 0.0099105 0.0113861 0.00376449 -4.40423e-07 2.88913e-07 5.63515e-08 0.0005 1.46608e-07 
57 1 0.0207626 0.0232964 0.0124963 0.00197608 0.00350628 -0.0104729 -1.63822e-06 -5.77426e-07 -2.86565e-06 0.0005 1.46608e-07 
58 1 0.0228688 0.0155949 0.0149334 0.00597247 0.00309745 -6.99797e-05 -2.11154e-06 -1.41013e-06 -4.7667e-06 0.0005 1.46608e-07 
59 1 0.0287261 0.0163554 0.0148479 0.000594685 0.0185998 0.0141896 -7.7573e-09 2.89939e-08 1.81032e-09 0.0005 1.46608e-07 
61 1 0.0257796 0.0217808 0.00832284 -0.000434382 -0.0187542 -0.0162049 7.47174e-08 -6.05761e-08 7.3822e-09 0.0005 1.46608e-07 
62 1 0.0610421 0.0187951 0.0058864 6.09984e-15 2.72011e-14 1.94806e-13 -4.48067e-20 4.23516e-22 1.27055e-21 0.0005 1.46608e-07 
63 1 0.020387 0.014539 0.0142124 -0.00366308 -0.000341638 -0.00198475 -1.56928e-06 1.92002e-07 -2.6851e-07 0.0005 1.46608e-07 
65 1 0.0228412 0.0203179 0.015775 0.00104028 0.0106896 -0.00851243 0 0 -1.43822e-06 0.0005 1.46608e-07 
66 1 0.0236314 0.023046 0.0155798 -0.00018552 -7.77612e-05 0.000238856 3.04904e-07 -9.13485e-07 5.92327e-07 0.0005 1.46608e-07 
67 1 0.0242071 0.0156036 0.00890948 0.00139413 -0.0100847 0.0150324 -6.52519e-09 -1.64071e-09 4.26791e-08 0.0005 1.46608e-07 
70 1 0.0257117 0.0203799 0.0165808 -9.41902e-05 -0.000226457 -2.13132e-05 -1.04992e-06 1.28477e-06 -1.10379e-06 0.0005 1.46608e-07 
71 1 0.0162921 0.0166618 0.0166454 -0.0836987 -0.141949 -0.105194 0 0 -1.43822e-06 0.0005 1.46608e-07 
72 1 0.0228557 0.0197321 0.0168458 -0.00944905 0.0181783 -0.0244333 0 0 -1.43822e-06 0.0005 1.46608e-07 
74 1 0.020152 0.0241305 0.0129732 -3.54844e-05 0.00198405 -0.000946139 -7.16057e-06 -2.44535e-08 1.98007e-06 0.0005 1.46608e-07 
75 1 0.01865 0.0220035 0.0158605 -0.00185581 0.0392521 -0.040118 0 0 -1.43822e-06 0.0005 1.46608e-07 
76 1 0.0157858 0.0213871 0.0165729 0.00409542 0.00569289 -0.00298417 -5.20316e-07 -1.18409e-06 -1.74759e-06 0.0005 1.46608e-07 
77 1 0.024144 0.0151231 0.00976178 -0.000205849 -0.010267 0.0215186 6.05731e-09 2.08902e-09 -1.52504e-07 0.0005 1.46608e-07 
78 1 0.020445 0.0217008 0.0174138 -0.0168146 -0.0741228 0.0596153 0 0 -1.43822e-06 0.0005 1.46608e-07 
79 1 0.0235681 0.0218575 0.0159737 -0.00993196 0.0103447 -0.00104362 -6.74323e-08 9.13074e-07 1.35301e-07 0.0005 1.46608e-07 
80 1 0.0186898 0.0242019 0.014185 0.00463925 -0.00107598 0.000886785 -3.92122e-06 3.36543e-07 -8.65253e-06 0.0005 1.46608e-07 
81 1 0.0200568 0.0151171 0.0149946 0.00251766 -0.00244246 -0.00651973 -5.39375e-09 -2.4021e-07 -9.34682e-07 0.0005 1.46608e-07 
82 1 0.0247845 0.0161311 0.0159104 0.00357623 0.003569 0.00535526 -7.79528e-08 4.92353e-09 -3.68232e-07 0.0005 1.46608e-07 
83 1 0.0210533 0.0230538 0.0134136 0.00192251 0.00501036 -0.013103 1.31373e-05 -8.75244e-06 1.87529e-05 0.0005 1.46608e-07 
85 1 0.0297754 0.014897 0.0106035 0.00203227 -0.00507429 0.0232112 -4.2318e-08 7.44323e-09 4.05036e-08 0.0005 1.46608e-07 
86 1 0.0163432 0.0236758 0.0150903 0.000103876 -0.000355908 -0.00214163 0 0 -1.43822e-06 0.0005 1.46608e-07 
88 1 0.0230362 0.0207976 0.0184254 0.0456651 -0.0416059 -0.0123183 7.43192e-07 -1.83772e-06 5.56166e-07 0.0005 1.46608e-07 
90 1 0.0172783 0.0202118 0.0199376 -0.0238735 -0.0366196 -0.0830441 0 0 -1.43822e-06 0.0005 1.46608e-07 
91 1 0.0225344 0.023144 0.017793 0.040399 0.0141559 0.027073 0 0 -1.43822e-06 0.0005 1.46608e-07 
92 1 0.0190809 0.0164432 0.0160501 -0.0027565 -0.00129323 -0.00379524 0 0 -1.43822e-06 0.0005 1.46608e-07 
93 1 0.024045 0.0186646 0.0159403 -0.00343084 0.0247873 0.00233035 -2.94512e-07 2.88193e-08 8.2992e-08 0.0005 1.46608e-07 
94 1 0.0197498 0.0158178 0.0156466 -0.00151139 -0.00250669 -0.00397569 -2.69692e-07 -1.23617e-07 -7.01253e-08 0.0005 1.46608e-07 
95 1 0.0200656 0.0136868 0.0137996 -0.0028091 0.00306739 -0.00866686 -4.87442e-07 -1.14367e-07 -3.84188e-07 0.0005 1.46608e-07 
97 1 0.0213909 0.0194914 0.0167838 2.99127e-05 0.0292777 -0.0022899 -8.67758e-09 -3.8543e-10 4.40138e-08 0.0005 1.46608e-07 
99 1 0.0251169 0.0178476 0.0168623 0.000891778 -6.04361e-05 0.00618758 1.05012e-06 -1.1854e-07 -1.859e-06 0.0005 1.46608e-07 
100 1 0.0179621 0.0193114 0.0159374 0.00494722 0.00580822 -0.00127696 -1.85212e-07 7.09915e-07 -2.24787e-08 0.0005 1.46608e-07 
101 1 0.0254945 0.0213359 0.0167769 -0.000328703 0.000456635 -0.000243004 -1.29289e-08 -1.75561e-06 -6.68659e-07 0.0005 1.46608e-07 
102 1 0.0167246 0.0223176 0.016847 0.00130864 0.00155059 0.00357299 -4.42691e-07 -5.98885e-07 -8.47758e-07 0.0005 1.46608e-07 
103 1 0.0212727 0.0147953 0.0145991 -0.00292547 -0.00313148 -0.000481523 8.57044e-07 1.31179e-06 1.3254e-06 0.0005 1.46608e-07 
104 1 0.0232346 0.0169427 0.016396 -0.00506639 0.00354961 -0.00632637 1.86543e-07 -5.40559e-08 -4.55718e-07 0.0005 1.46608e-07 
105 1 0.0151478 0.0155634 0.0154524 0.00221035 -0.00669986 -0.00955032 -4.91046e-08 -3.77399e-07 -3.10907e-07 0.0005 1.46608e-07 
106 1 0.0264979 0.0233832 0.0111749 0.000173694 -0.000587191 -0.0262584 1.37226e-10 -1.54803e-08 -6.80936e-09 0.0005 1.46608e-07 
107 1 0.0206035 0.0235621 0.0117737 0.00274617 -0.000330157 -0.00385327 3.06305e-08 9.20444e-07 -7.1309e-08 0.0005 1.46608e-07 
108 1 0.0211236 0.0239637 0.0131211 0.000133953 0.00133229 -0.00348064 -6.0693e-06 -3.35261e-06 -1.784e-06 0.0005 1.46608e-07 
109 1 0.0233727 0.0164424 0.0150993 0.00382029 0.00376998 0.00334609 -9.86591e-07 -1.74148e-07 4.42707e-08 0.0005 1.46608e-07 
110 1 0.0202279 0.0154799 0.0164573 -0.000748821 -0.00778169 -0.0066725 3.74067e-07 -4.72482e-07 -4.51001e-07 0.0005 1.46608e-07 
111 1 0.0195448 0.0227448 0.0202407 -0.0637133 0.0501763 0.0354859 0 0 -1.43822e-06 0.0005 1.46608e-07 
112 1 0.0178987 0.0154227 0.0140651 0.00455352 -0.008805 -0.0132408 -1.69911e-07 -2.34162e-07 -5.61213e-07 0.0005 1.46608e-07 
113 1 0.0203488 0.0175912 0.0165387 -0.000818805 0.0107829 0.00236483 2.60406e-08 6.60488e-08 3.08845e-08 0.0005 1.46608e-07 
114 1 0.0185375 0.0185652 0.0195286 -0.0678889 -0.0752358 0.0120206 0 0 -1.43822e-06 0.0005 1.46608e-07 
116 1 0.0164355 0.0236674 0.0137107 0.000156395 0.00361343 -0.00218142 8.81715e-07 -4.16579e-06 2.27664e-05 0.0005 1.46608e-07 
118 1 0.0182048 0.0167991 0.016376 0.00114138 0.00204405 0.00374852 3.30464e-07 -2.38776e-07 -1.26975e-07 0.0005 1.46608e-07 
119 1 0.0143099 0.0212755 0.0162809 0.00199028 0.00374872 -0.00301747 -9.31988e-07 3.47774e-07 -4.84175e-07 0.0005 1.46608e-07 
120 1 0.0175119 0.0257864 0.0213282 -0.0132819 -0.0602805 -0.0654208 0 0 -1.43822e-06 0.0005 1.46608e-07 
123 1 0.024344 0.0224881 0.0159838 -2.88738e-05 0.000430982 -0.000527567 1.88795e-07 -6.83769e-07 8.84431e-07 0.0005 1.46608e-07 
124 1 0.01914 0.0229472 0.016119 -0.0146217 -0.0277867 -0.02448 0 0 -1.43822e-06 0.0005 1.46608e-07 
125 1 0.0222598 0.0170239 0.0166034 -0.00619975 0.000544499 -0.00755891 -6.98613e-07 1.50798e-07 -1.00267e-06 0.0005 1.46608e-07 
127 1 0.0160247 0.0221648 0.015978 0.00293373 0.00107423 -0.000608921 -3.45366e-07 3.01985e-07 -1.05623e-06 0.0005 1.46608e-07 
128 1 0.025869 0.0194101 0.016766 0.000353132 -0.00027057 0.000761124 -1.46625e-07 4.15766e-07 2.00396e-07 0.0005 1.46608e-07 
129 1 0.0133386 0.0214868 0.0161722 0.00137454 0.00165561 -0.00091177 -6.35323e-07 -6.48729e-07 -2.58638e-07 0.0005 1.46608e-07 
134 1 0.0143211 0.0229308 0.0150904 0.00290741 0.000845595 -0.00126215 6.81762e-07 -9.92374e-07 7.50515e-07 0.0005 1.46608e-07 
135 1 0.0217126 0.020177 0.0174367 0.0124324 0.0279749 -0.00698517 1.26235e-07 3.69453e-07 -2.78736e-07 0.0005 1.46608e-07 
136 1 0.024039 0.0154006 0.0153716 0.00358514 0.00243114 0.003055 -1.21474e-07 -9.6972e-07 1.31289e-07 0.0005 1.46608e-07 
137 1 0.0241447 0.0215779 0.0167423 0.00607866 0.0145106 -0.0183037 0 0 -1.43822e-06 0.0005 1.46608e-07 
138 1 0.0223993 0.0206875 0.0167367 0.00691603 0.0364438 -0.00836147 0 0 -1.43822e-06 0.0005 1.46608e-07 
139 1 0.0210212 0.0137476 0.0141389 -0.00170595 0.00228201 -0.00675631 -4.88301e-08 -4.44181e-08 1.82085e-07 0.0005 1.46608e-07 
140 1 0.023747 0.0157509 0.0144817 0.00519798 0.00361252 0.00425698 1.5645e-06 2.2402e-06 -7.82557e-07 0.0005 1.46608e-07 
141 1 0.0213518 0.0231787 0.0143676 0.000532469 0.00511773 -0.00997997 0 0 -1.43822e-06 0.0005 1.46608e-07 
143 1 0.0169067 0.0226314 0.0159152 0.00367769 0.000576144 0.00289876 -9.5375e-07 8.50943e-07 7.74547e-08 0.0005 1.46608e-07 
144 1 0.0199366 0.0222927 0.015638 -0.00226369 0.0220659 -0.0171119 2.78976e-07 6.01182e-07 -5.27866e-07 0.0005 1.46608e-07 
145 1 0.028091 0.0189088 0.015831 0.00230335 0.0207486 -7.39193e-05 -4.34037e-08 8.16954e-08 -2.51784e-09 0.0005 1.46608e-07 
146 1 0.0150067 0.014857 0.0146745 0.00762969 -0.0026661 -0.00708757 4.27734e-08 -4.1466e-08 1.58514e-08 0.0005 1.46608e-07 
147 1 0.0218197 0.0179204 0.0166578 -0.016726 -0.00501058 -0.0213851 0 0 -1.43822e-06 0.0005 1.46608e-07 
149 1 0.0139297 0.0222386 0.0156967 -0.00384338 0.00239208 -0.00365539 -2.444e-07 -8.4142e-07 5.75926e-07 0.0005 1.46608e-07 
150 1 0.0231304 0.0146298 0.0149239 -0.000886133 0.00102297 -0.00290087 5.16873e-09 3.39735e-07 -4.91239e-07 0.0005 1.46608e-07 
152 1 0.0200771 0.0166389 0.016155 -0.00287726 0.0022398 -0.000499041 1.67231e-08 -8.769e-08 -2.02948e-08 0.0005 1.46608e-07 
153 1 0.0186705 0.022908 0.0150659 0.00332696 -6.20322e-05 0.00179413 -1.27559e-06 2.37738e-06 -3.76527e-06 0.0005 1.46608e-07 
155 1 0.0228289 0.0180056 0.016639 -0.00061753 0.00261319 0.00255492 -9.23515e-09 -6.19879e-08 -5.7698e-08 0.0005 1.46608e-07 
156 1 0.0232392 0.0160922 0.0169335 -0.00903897 0.00254175 -0.000492005 1.26878e-07 1.95736e-07 -1.03017e-06 0.0005 1.46608e-07 
157 1 0.0209567 0.0184296 0.0167262 -0.00227617 0.0241613 0.00331131 1.20312e-07 3.22131e-07 2.0671e-08 0.0005 1.46608e-07 
158 1 0.016769 0.0205969 0.0158383 0.00799745 0.00442779 -0.00274335 -1.51131e-06 -6.7565e-07 1.83512e-06 0.0005 1.46608e-07 
159 1 0.0175439 0.014615 0.0119494 0.00068333 0.00236383 -0.0045968 -1.32643e-06 3.00049e-07 -1.85702e-06 0.0005 1.46608e-07 
160 1 0.0209195 0.015047 0.0155001 -0.00229971 -0.00270788 -0.00106175 1.82866e-07 -7.66399e-07 -1.98786e-06 0.0005 1.46608e-07 
162 1 0.0235106 0.0187275 0.0167831 -0.0178686 0.0127854 -0.00601855 -2.4927e-07 6.69486e-08 2.65979e-07 0.0005 1.46608e-07 
164 1 0.0230708 0.0193483 0.0159408 0.0120451 0.00525716 -0.00139032 -3.40868e-07 5.99608e-07 -1.03382e-07 0.0005 1.46608e-07 
165 1 0.0217031 0.0211797 0.0154465 -0.00691031 0.00880664 0.00925362 4.19836e-06 1.68893e-06 -1.24446e-06 0.0005 1.46608e-07 
166 1 0.017565 0.019327 0.0169206 -0.049913 -0.0226194 -0.0359142 0 0 -1.43822e-06 0.0005 1.46608e-07 
167 1 0.018088 0.0234251 0.0143689 -0.00255869 0.00218668 0.00204569 -3.71949e-07 -1.36878e-06 1.13413e-06 0.0005 1.46608e-07 
169 1 0.0138127 0.0211772 0.0172826 0.00516754 0.0104689 -0.012673 0 0 -1.43822e-06 0.0005 1.46608e-07 
170 1 0.0170858 0.015927 0.0155754 -0.011725 -0.0323184 -0.0342249 0 0 -1.43822e-06 0.0005 1.46608e-07 
171 1 0.0198011 0.0233405 0.0154567 0.0161851 -0.018891 -0.00846429 0 0 -1.43822e-06 0.0005 1.46608e-07 
172 1 0.0157009 0.0234532 0.0143562 0.00298567 -0.0021214 -0.00706355 0 0 -1.43822e-06 0.0005 1.46608e-07 
173 1 0.0196638 0.0215154 0.00796741 0.00142883 -0.0172222 -0.0108967 -1.6224e-08 -5.36059e-08 -1.30816e-08 0.0005 1.46608e-07 
176 1 0.0181233 0.0155767 0.0156351 0.0220253 -0.0591198 -0.0232561 0 0 -1.43822e-06 0.0005 1.46608e-07 
177 1 0.0189705 0.015194 0.0152188 0.0024619 -0.0115129 -0.0137414 4.6452e-07 -8.82285e-07 1.07409e-07 0.0005 1.46608e-07 
178 1 0.0149594 0.0233889 0.0246659 -0.239262 0.0131123 0.271674 0 0 -1.43822e-06 0.0005 1.46608e-07 
180 1 0.0169635 0.0156373 0.0143694 0.00692615 -0.00038395 -0.00306024 -5.53848e-08 -2.93235e-07 -8.61755e-07 0.0005 1.46608e-07 
181 1 0.0232211 0.0187795 0.0212864 -0.0085604 -0.146818 0.0957401 0 0 -1.43822e-06 0.0005 1.46608e-07 
182 1 0.0193651 0.0144902 0.0146272 0.00799601 -0.00904198 -0.0166638 0 0 -1.43822e-06 0.0005 1.46608e-07 
183 1 0.0176414 0.0218853 0.0161162 0.0060359 3.32104e-05 0.00158405 -2.36627e-06 -2.20074e-06 3.77941e-07 0.0005 1.46608e-07 
184 1 0.0234282 0.0148069 0.0122204 0.00023337 0.00432462 0.0244443 -1.70812e-09 1.81583e-08 7.56598e-09 0.0005 1.46608e-07 
187 1 0.0167275 0.0215052 0.0162579 0.00583836 0.00205736 -0.000225366 -1.04752e-06 -1.43921e-06 1.00425e-06 0.0005 1.46608e-07 
190 1 0.024772 0.0193278 0.0175896 -0.00348505 0.00224959 -0.000912708 0 0 -1.43822e-06 0.0005 1.46608e-07 
191 1 0.021557 0.0222258 0.014609 -0.00910913 0.00271567 -0.00305766 2.18701e-07 1.05318e-06 -1.0426e-06 0.0005 1.46608e-07 
193 1 0.0225693 0.0223983 0.0158862 -0.000149699 0.0282467 -0.0107663 0 0 -1.43822e-06 0.0005 1.46608e-07 
194 1 0.0236215 0.0207527 0.01652 -0.0117495 0.0244034 -0.0216353 0 0 -1.43822e-06 0.0005 1.46608e-07 
195 1 0.0166757 0.0205522 0.0168328 0.004998 0.00206248 0.00141073 4.68473e-07 -1.21544e-07 -5.38568e-07 0.0005 1.46608e-07 
197 1 0.0935581 0.0183371 0.00588747 1.05828e-14 1.89602e-14 2.48644e-13 -2.15199e-20 1.15011e-20 0 0.0005 1.46608e-07 
199 1 0.0243018 0.0183017 0.017222 -0.0156348 -0.00358773 -0.0271303 -3.14835e-07 4.19648e-07 6.16844e-08 0.0005 1.46608e-07 
201 1 0.02191 0.023986 0.0177606 8.17589e-05 -0.0133268 -0.0297601 -1.63604e-07 -3.74441e-07 -9.6451e-07 0.0005 1.46608e-07 
203 1 0.0204401 0.0239015 0.0160236 0.00176282 -0.0194652 -0.0527438 -1.73722e-07 -3.11123e-07 -1.0924e-06 0.0005 1.46608e-07 
204 1 0.118145 0.0201427 0.00585321 -1.09215e-15 -1.75122e-14 8.4019e-14 -3.36927e-20 2.43522e-21 0 0.0005 1.46608e-07 
205 1 0.0254206 0.0204767 0.00749538 -0.000194571 -0.0258479 -0.00990513 8.30294e-09 -1.57853e-07 -6.99226e-08 0.0005 1.46608e-07 
206 1 0.0188985 0.0144653 0.0178702 -0.0234231 -0.011922 -0.0027122 0 0 -1.43822e-06 0.0005 1.46608e-07 
207 1 0.0203313 0.023938 0.0207619 -0.0032437 0.0652867 0.129981 0 0 -1.43822e-06 0.0005 1.46608e-07 
209 1 0.0202775 0.0244962 0.0175289 0.00103529 -0.0104502 -0.0355105 0 0 -1.43822e-06 0.0005 1.46608e-07 
212 1 0.0129363 0.019736 0.0167601 -0.0211461 0.0156694 -0.111894 0 0 -1.43822e-06 0.0005 1.46608e-07 
213 1 0.0190032 0.0188673 0.0167568 -0.00199935 0.00542174 0.0108347 0 0 -1.43822e-06 0.0005 1.46608e-07 
214 1 0.0230952 0.0152946 0.0138763 0.00475581 0.0030142 0.00511145 4.59694e-07 5.57662e-07 -3.35875e-07 0.0005 1.46608e-07 
215 1 0.0191416 0.0194197 0.00718291 0.00088908 -0.0106806 -0.00157317 -1.89791e-08 -9.45826e-09 2.28463e-08 0.0005 1.46608e-07 
218 1 0.0161586 0.015028 0.0149384 0.00188953 0.00139236 0.00508985 0 0 -1.43822e-06 0.0005 1.46608e-07 
219 1 0.0163562 0.0221807 0.0146898 -0.0014515 0.00798158 -0.00020025 -4.90893e-06 6.15821e-06 1.80656e-06 0.0005 1.46608e-07 
220 1 0.0199584 0.0211489 0.0163388 -0.068058 -0.0222691 0.0114126 2.59599e-07 6.75664e-07 -2.62733e-07 0.0005 1.46608e-07 
221 1 0.0240139 0.0167649 0.0157952 0.00286875 0.00266561 0.00397704 3.5294e-06 -3.84078e-06 -2.85367e-06 0.0005 1.46608e-07 
222 1 0.0188477 0.0237454 0.0155827 0.00315459 -0.000726294 0.000375181 -1.38267e-06 1.38036e-06 -1.66478e-07 0.0005 1.46608e-07 
224 1 0.0200491 0.0188507 0.0167599 -0.00747158 0.016982 -0.000166267 2.00733e-07 2.34223e-07 -4.16939e-08 0.0005 1.46608e-07 
225 1 0.0169773 0.0196225 0.0159204 0.00675585 0.00194488 0.00270045 4.42229e-07 3.85698e-07 1.02285e-06 0.0005 1.46608e-07 
226 1 0.025987 0.0225939 0.00913888 0.00320418 -0.0108264 -0.00998593 -5.44832e-08 8.78814e-08 1.05592e-08 0.0005 1.46608e-07 
227 1 0.0190759 0.0143718 0.0136742 0.00478777 0.0145297 -0.00941985 6.22494e-07 -6.60609e-07 8.20483e-07 0.0005 1.46608e-07 
229 1 0.027102 0.0226831 0.0136449 -8.76208e-05 0.014724 -0.0215039 -8.13348e-10 -1.21452e-08 -1.20607e-08 0.0005 1.46608e-07 
230 1 0.0233591 0.0178955 0.0157983 0.0049783 0.0216831 0.00601446 -6.73761e-07 6.82198e-08 -1.16764e-06 0.0005 1.46608e-07 
231 1 0.0247989 0.0205103 0.018252 -0.00238213 -0.0452851 -0.0128569 -1.15165e-07 2.39252e-08 -6.7806e-07 0.0005 1.46608e-07 
233 1 0.0189042 0.0196226 0.0174221 -0.0426283 0.0173519 0.0200589 0 0 -1.43822e-06 0.0005 1.46608e-07 
234 1 0.0169831 0.0176903 0.0157373 0.0130325 0.000571865 -0.000497998 1.05784e-06 1.0743e-06 3.92959e-07 0.0005 1.46608e-07 
235 1 0.0243693 0.0172371 0.0166016 0.0012012 0.000292096 0.00405858 6.05677e-06 -1.31976e-06 -5.44798e-06 0.0005 1.46608e-07 
236 1 0.0235887 0.0147426 0.0113091 0.000166918 -0.0025269 0.0257274 1.34365e-09 1.42406e-08 4.82988e-09 0.0005 1.46608e-07 
242 1 0.0188536 0.0155919 0.014309 0.0049757 -0.00753769 -0.0130998 -2.61667e-07 -6.38774e-07 1.14551e-07 0.0005 1.46608e-07 
244 1 0.0150916 0.0235662 0.0151417 0.00424255 0.000783823 -0.00335124 1.04136e-07 -5.83244e-07 -8.5401e-07 0.0005 1.46608e-07 
245 1 0.0186535 0.0164056 0.0150777 0.00529112 0.00706665 0.00619076 -3.54695e-07 -2.48869e-07 -1.24645e-07 0.0005 1.46608e-07 
246 1 0.0151409 0.0228291 0.0138103 0.00364135 0.000915865 -0.00425506 4.59199e-07 -1.42063e-06 -2.54749e-06 0.0005 1.46608e-07 
247 1 0.0183109 0.0240808 0.0164696 0.00576459 0.000990777 0.0013154 4.90479e-07 1.74083e-07 2.58878e-07 0.0005 1.46608e-07 
249 1 0.0176064 0.0139093 0.0138104 0.00225979 0.00161858 -0.00593694 1.57408e-08 2.52422e-07 -1.18499e-06 0.0005 1.46608e-07 
250 1 0.0220641 0.0193614 0.0159526 0.00558414 0.00920763 0.00402595 0 0 -1.43822e-06 0.0005 1.46608e-07 
251 1 0.0209808 0.0206855 0.0165152 -1.0915e-08 0.0277758 -0.00894354 -2.7404e-14 -7.0778e-09 -2.22994e-08 0.0005 1.46608e-07 
252 1 0.0185845 0.014614 0.0119509 -0.000593591 0.00169285 -0.00275547 -1.02927e-07 3.17069e-08 5.2887e-07 0.0005 1.46608e-07 
253 1 0.0127918 0.0207137 0.0164941 -0.00860308 0.00840949 -0.00219848 2.18247e-07 9.07185e-07 -5.20338e-07 0.0005 1.46608e-07 
255 1 0.0157766 0.0207393 0.0158112 0.00583622 0.000288642 -0.000375879 -2.716e-07 2.20911e-07 -1.47428e-06 0.0005 1.46608e-07 
256 1 0.0181417 0.0146246 0.0146164 0.0209301 -0.0208419 -0.0381215 3.77435e-07 -1.87023e-07 -9.56303e-07 0.0005 1.46608e-07 
257 1 0.0172852 0.0240103 0.0167116 0.00210556 0.000348993 -0.00029664 -3.12517e-07 -7.53087e-08 -5.12505e-07 0.0005 1.46608e-07 
258 1 0.0176665 0.014243 0.0128693 0.000617229 -0.000463151 -0.00521657 1.17021e-06 -1.35476e-06 3.16654e-06 0.0005 1.46608e-07 
259 1 0.0173231 0.0219868 0.0148534 0.00186457 0.00838107 -0.00465709 -2.61025e-06 -2.98949e-07 1.76807e-06 0.0005 1.46608e-07 
260 1 0.0166418 0.0142057 0.0136317 0.000961348 0.000647807 -0.00258273 6.39678e-08 -9.82327e-08 -2.51673e-08 0.0005 1.46608e-07 
261 1 0.0201573 0.0208369 0.0076181 -0.000337438 -0.0222593 -0.0097332 8.39623e-10 -1.32156e-08 6.71099e-09 0.0005 1.46608e-07 
262 1 0.0224459 0.0187917 0.0171333 -0.0359389 0.0177134 -0.0365114 0 0 -1.43822e-06 0.0005 1.46608e-07 
263 1 0.0165584 0.0213978 0.0152781 0.0062963 0.00650144 -0.00294957 3.64921e-07 5.94244e-06 -7.21429e-07 0.0005 1.46608e-07 
264 1 0.0177378 0.0160932 0.0148219 0.0105901 -0.00522755 -0.0121131 0 0 -1.43822e-06 0.0005 1.46608e-07 
265 1 0.0225661 0.0163826 0.0158147 0.00986156 0.0149916 -0.00305227 -3.15443e-07 8.23964e-08 2.97904e-07 0.0005 1.46608e-07 
266 1 0.0161995 0.0187886 0.0159471 0.00896978 -0.0118076 0.0022573 0 0 -1.43822e-06 0.0005 1.46608e-07 
267 1 0.0137801 0.0204764 0.0165649 -0.00403258 0.00698001 -0.00377825 1.22928e-07 8.57539e-07 -3.44838e-07 0.0005 1.46608e-07 
268 1 0.0172015 0.0186466 0.0159388 0.00750171 0.00493679 -0.00320638 -7.15561e-07 1.23816e-06 2.97636e-06 0.0005 1.46608e-07 
269 1 0.0217951 0.021384 0.0190082 0.0258909 -0.0363134 0.0069217 0 0 -1.43822e-06 0.0005 1.46608e-07 
270 1 0.0149809 0.0209162 0.0169336 0.00460617 0.00460771 -0.0018704 6.9549e-07 -6.36697e-07 -6.65398e-07 0.0005 1.46608e-07 
271 1 0.0198556 0.0222417 0.00860924 -0.000330509 -0.0143587 -0.0169202 -3.8373e-09 -5.20364e-08 -1.29982e-08 0.0005 1.46608e-07 
272 1 0.0204874 0.019536 0.0180903 -0.0334335 -0.0896364 -0.0196277 0 0 -1.43822e-06 0.0005 1.46608e-07 
274 1 0.0170137 0.023622 0.015831 0.0012134 9.99466e-05 0.000360526 4.60773e-07 7.87385e-07 2.06432e-07 0.0005 1.46608e-07 
275 1 0.0158345 0.0144897 0.0141579 6.50344e-05 -0.000934385 0.000151548 9.34413e-07 1.94092e-06 1.2653e-06 0.0005 1.46608e-07 
276 1 0.0225088 0.017375 0.015616 0.00228595 0.0094624 0.0159264 0 0 -1.43822e-06 0.0005 1.46608e-07 
278 1 0.0193671 0.0234145 0.0145582 0.00492885 -0.00121165 0.00241282 -3.08528e-07 1.37137e-06 -1.88241e-06 0.0005 1.46608e-07 
281 1 0.0154929 0.0225795 0.0167163 0.000531032 -0.000335103 -0.00112787 -4.27531e-07 -3.75298e-08 -9.65526e-07 0.0005 1.46608e-07 
283 1 0.015721 0.0202835 0.0167047 0.00529032 0.00388879 -0.000580494 -2.32649e-07 4.1592e-07 -5.44526e-07 0.0005 1.46608e-07 
284 1 0.0196593 0.0140166 0.012943 -0.00304069 0.00368188 -0.0061043 5.42326e-08 5.4422e-08 -2.67799e-07 0.0005 1.46608e-07 
285 1 0.021596 0.0233545 0.0124744 -0.000200296 0.000909856 -0.00191601 2.49612e-07 -5.09583e-07 -7.82933e-08 0.0005 1.46608e-07 
287 1 0.0215388 0.0165227 0.0161248 -0.00776695 -0.00439596 -0.000228774 3.18931e-08 8.94627e-09 -9.69537e-07 0.0005 1.46608e-07 
288 1 0.0222847 0.0141377 0.0147175 -0.000777332 0.000250168 -0.00118287 -4.03488e-07 1.57915e-07 -6.76794e-07 0.0005 1.46608e-07 
290 1 0.0159832 0.019764 0.0158916 0.007985 -0.00214744 0.0027817 2.32649e-07 -4.1592e-07 -2.33192e-06 0.0005 1.46608e-07 
291 1 0.0179527 0.0148137 0.0174141 -0.0103055 0.0194063 0.00530179 0 0 -1.43822e-06 0.0005 1.46608e-07 
292 1 0.0166854 0.0227537 0.0139303 0.00785099 0.00533325 -0.00824098 -2.37695e-06 -1.03813e-05 1.75925e-05 0.0005 1.46608e-07 
294 1 0.0158333 0.0228304 0.0152507 -0.00308238 -0.000740859 -0.00244463 0 0 -1.43822e-06 0.0005 1.46608e-07 
295 1 0.0259395 0.0184153 0.0168368 0.000759734 -2.37598e-05 0.00183735 4.8862e-07 3.12653e-07 9.37021e-07 0.0005 1.46608e-07 
296 1 0.0247114 0.0207858 0.0164605 -0.00166781 0.0078808 -0.00122702 4.30663e-07 -2.74752e-05 2.83472e-05 0.0005 1.46608e-07 
297 1 0.0268734 0.0227957 0.00926768 0.00395937 -0.00497433 -0.00921464 2.86325e-07 2.06474e-07 7.5554e-08 0.0005 1.46608e-07 
298 1 0.0170571 0.0149001 0.0153655 0.0218265 -0.036494 -0.0565048 0 0 -1.43822e-06 0.0005 1.46608e-07 
300 1 0.0220604 0.0150518 0.0151591 0.00484953 -0.00122597 -0.0115875 -5.61232e-06 -2.81203e-06 9.72602e-06 0.0005 1.46608e-07 
301 1 0.0217192 0.0149411 0.0160928 0.00876114 0.00399514 -0.00980031 0 0 -1.43822e-06 0.0005 1.46608e-07 
302 1 0.0234559 0.0159527 0.0159673 0.0021228 0.0017129 0.0020216 6.37372e-08 5.78987e-07 -1.387e-06 0.0005 1.46608e-07 
303 1 0.0178812 0.0236113 0.0153339 0.00253723 -0.000109076 0.00197648 -1.43339e-07 1.59632e-07 -1.29018e-06 0.0005 1.46608e-07 
304 1 0.0235296 0.0199435 0.0182611 0.0362254 -0.0484375 -0.0389726 -7.43192e-07 1.83772e-06 -3.43261e-06 0.0005 1.46608e-07 
307 1 0.0180245 0.0231407 0.0162854 0.00541656 0.000563909 0.00347452 -1.3223e-07 1.68765e-06 -1.77737e-06 0.0005 1.46608e-07 
308 1 0.0176971 0.0220763 0.0170962 0.00108701 0.0052477 0.000526413 1.40509e-06 9.53807e-07 3.78002e-07 0.0005 1.46608e-07 
312 1 0.0172189 0.0230713 0.0147142 -0.00361027 0.00271068 -0.000605331 -1.01686e-06 1.78962e-07 -1.2013e-06 0.0005 1.46608e-07 
313 1 0.0223655 0.0218332 0.0150809 -0.00357555 0.000353038 0.0058474 -7.11488e-07 8.83835e-06 -4.46697e-06 0.0005 1.46608e-07 
314 1 0.0144385 0.017015 0.0164245 -0.136663 -0.0939661 -0.11908 0 0 -1.43822e-06 0.0005 1.46608e-07 
315 1 0.00842114 0.0323835 0.0435188 -9.72922e-317 -9.70169e-317 -1.69736e-12 0 0 0 0.0005 1.46608e-07 
316 1 0.0244033 0.0162981 0.0150012 0.00354596 0.00409773 0.00521951 -9.00391e-09 2.18467e-07 -4.61418e-07 0.0005 1.46608e-07 
317 1 0.0178314 0.0170435 0.0154812 -0.000949713 0.0181984 0.00944176 3.29487e-07 -7.54169e-08 -1.85954e-07 0.0005 1.46608e-07 
318 1 0.0153635 0.0222443 0.0145899 -0.00297055 0.0017951 -0.00160767 -1.25602e-06 5.04322e-06 2.07192e-06 0.0005 1.46608e-07 
319 1 0.0248842 0.0198343 0.0167176 0.00046273 0.000594743 -0.00209765 -3.25248e-08 1.73465e-07 -1.33133e-06 0.0005 1.46608e-07 
320 1 0.0207875 0.0140858 0.0132274 -0.00211574 0.00251535 -0.0066456 5.34416e-08 1.87467e-08 2.20722e-07 0.0005 1.46608e-07 
321 1 0.0217894 0.0143417 0.0138731 -0.00183945 -0.000971258 -0.000899335 -2.097e-07 -3.16202e-07 4.02507e-07 0.0005 1.46608e-07 