ITEM: TIMESTEP
3000000
ITEM: NUMBER OF ATOMS
290
ITEM: BOX BOUNDS ff ff ff
-0.02 0.43
-0.02 0.06
-0.02 0.07
ITEM: ATOMS id type x y z vx vy vz fx fy fz radius mass 
1 1 0.0214677 0.0242596 0.0140522 7.93491e-05 -9.63841e-05 7.36029e-05 -2.73773e-09 1.13715e-07 -1.09971e-07 0.0005 1.46608e-07 
2 1 0.0189629 0.0238741 0.0133075 -0.000971134 0.00151042 -0.00256955 3.4244e-08 -8.21817e-09 1.3622e-07 0.0005 1.46608e-07 
3 1 0.0249938 0.0165219 0.0160523 0.00258114 0.00408857 0.0035541 -4.94443e-07 -6.16906e-09 -2.5346e-07 0.0005 1.46608e-07 
4 1 0.0218596 0.0149581 0.0148303 0.00323385 0.000622646 -0.000170599 -9.01182e-08 -4.43191e-07 -5.14868e-07 0.0005 1.46608e-07 
5 1 0.0165416 0.0153057 0.016073 -0.00158987 0.00187725 -0.0066021 6.11757e-07 -1.21735e-06 1.54824e-06 0.0005 1.46608e-07 
6 1 0.0166585 0.0178302 0.0173999 0.0281001 -0.103646 0.0588297 0 0 -1.43822e-06 0.0005 1.46608e-07 
7 1 0.0216268 0.0156553 0.015509 0.00962962 0.00259926 0.00190993 8.09075e-08 -8.29614e-07 1.64633e-06 0.0005 1.46608e-07 
8 1 0.0270368 0.0233429 0.012174 -0.000286409 0.00303026 -0.0241326 4.02436e-09 -1.47465e-08 -1.12227e-09 0.0005 1.46608e-07 
9 1 0.0226425 0.0232363 0.0155881 0.000173986 0.000176955 4.1261e-06 2.38203e-06 5.16325e-07 -6.40419e-08 0.0005 1.46608e-07 
10 1 0.0173842 0.0196385 0.0163616 -0.00825363 -0.0764496 0.060241 0 0 -1.43822e-06 0.0005 1.46608e-07 
11 1 0.0216799 0.0206929 0.0171781 0.00212891 0.0032727 -0.00213722 1.64405e-06 4.8559e-06 4.75558e-06 0.0005 1.46608e-07 
13 1 0.0176255 0.0243869 0.0138758 0.00120399 0.000464138 0.000365942 7.61537e-06 -6.56277e-07 -8.40576e-07 0.0005 1.46608e-07 
14 1 0.0157957 0.0225152 0.018547 0.0180466 0.0106284 0.0583144 0 0 -1.43822e-06 0.0005 1.46608e-07 
15 1 0.0262741 0.022799 0.00931815 0.00365292 -0.00870878 -0.0149998 2.71989e-07 1.77091e-08 4.30475e-11 0.0005 1.46608e-07 
16 1 0.020242 0.0199917 0.0166903 0.0126395 -0.0125331 0.00448769 -4.51878e-09 1.83098e-08 -1.41485e-06 0.0005 1.46608e-07 
17 1 0.0174169 0.0216001 0.0176948 0.0810579 -0.0154533 0.0603717 0 0 -1.43822e-06 0.0005 1.46608e-07 
18 1 0.0239587 0.0159158 0.0146497 0.00568154 0.00491186 0.00412698 2.57905e-07 2.15782e-07 1.99008e-07 0.0005 1.46608e-07 
19 1 0.0187402 0.0241294 0.0125293 0.000442904 0.00526439 -0.00256929 1.36433e-08 -1.60117e-08 2.8985e-07 0.0005 1.46608e-07 
21 1 0.0227799 0.0234721 0.0141769 0.000500608 0.000187973 0.000124278 1.81062e-07 7.21689e-07 -3.23735e-07 0.0005 1.46608e-07 
22 1 0.0225033 0.0204793 0.0166478 0.00694874 0.00960813 -0.0071309 0 0 -1.43822e-06 0.0005 1.46608e-07 
23 1 0.0196342 0.0244497 0.0136708 -0.000224551 8.1811e-05 -0.00040528 -6.96497e-08 1.09661e-07 7.48444e-08 0.0005 1.46608e-07 
26 1 0.0203448 0.0239447 0.0146305 -0.000381467 0.00043303 0.000240335 -4.62049e-07 2.11926e-06 -2.33954e-06 0.0005 1.46608e-07 
28 1 0.0171945 0.0147704 0.0141539 0.00544585 0.000286065 0.00118267 -1.32846e-06 9.2642e-07 2.71439e-06 0.0005 1.46608e-07 
29 1 0.0136303 0.0218521 0.018698 0.00210117 0.00240482 -0.000277461 2.74306e-07 7.39033e-07 6.46372e-07 0.0005 1.46608e-07 
30 1 0.0205748 0.024358 0.0137499 -0.000153391 -0.000145982 -1.51626e-05 -2.62514e-07 3.56633e-07 3.58239e-08 0.0005 1.46608e-07 
31 1 0.0206193 0.0233593 0.010924 0.000338532 -0.00372448 -0.0231681 -3.59696e-09 -1.56064e-08 -1.19145e-08 0.0005 1.46608e-07 
32 1 0.0140397 0.0154753 0.0153413 0.0039189 -0.00323199 -0.00444304 1.23821e-07 -1.51956e-07 -9.35581e-08 0.0005 1.46608e-07 
33 1 0.0275482 0.0218298 0.014684 0.000830867 0.0168158 -0.015909 -6.48267e-09 3.38479e-09 -2.11977e-08 0.0005 1.46608e-07 
36 1 0.0231922 0.0154875 0.0141712 0.00495878 0.00469768 0.00414868 1.9997e-07 -9.70176e-08 -5.03792e-08 0.0005 1.46608e-07 
37 1 0.0233124 0.0231988 0.0148837 5.10191e-05 0.000226885 0.000120829 5.72226e-08 8.95656e-07 -4.1336e-07 0.0005 1.46608e-07 
38 1 0.154353 0.0180393 0.00580707 8.89528e-15 -2.34076e-14 1.89552e-13 -2.01342e-19 -1.06276e-19 -4.44692e-21 0.0005 1.46608e-07 
40 1 0.0220699 0.0238831 0.0147068 0.000210816 -8.88511e-05 8.74817e-07 6.05708e-07 1.30067e-06 -5.55216e-07 0.0005 1.46608e-07 
41 1 0.0165118 0.0240526 0.0144306 0.0021337 0.000549399 0.000632172 2.2129e-06 -6.38487e-07 4.00455e-06 0.0005 1.46608e-07 
42 1 0.0248649 0.021739 0.015941 -0.000338657 0.00439053 0.000104881 -2.41013e-07 2.16452e-07 -2.2985e-07 0.0005 1.46608e-07 
43 1 0.0168425 0.0239388 0.0135003 0.00377052 0.00127135 0.000334661 1.33173e-05 6.45152e-06 6.51808e-06 0.0005 1.46608e-07 
44 1 0.0140525 0.0214022 0.0169307 0.00232075 0.00126005 -0.000456299 1.6488e-07 4.69688e-07 -2.78204e-07 0.0005 1.46608e-07 
45 1 0.0280498 0.0197632 0.015744 0.000158356 0.0234054 -0.00506292 1.03932e-09 1.97664e-09 -1.35571e-08 0.0005 1.46608e-07 
46 1 0.0174391 0.0234419 0.0141763 0.00920596 0.0059515 -0.00473825 -2.31227e-05 -1.15406e-05 1.86658e-05 0.0005 1.46608e-07 
47 1 0.0223736 0.021981 0.0148185 0.00410565 0.00102512 0.000103956 -3.17469e-06 1.66146e-06 -1.38229e-06 0.0005 1.46608e-07 
48 1 0.0244185 0.0156506 0.0157378 -0.000567953 0.000345619 -0.00146902 6.33007e-08 6.36799e-08 5.58605e-08 0.0005 1.46608e-07 
49 1 0.0204893 0.0229724 0.016385 0.00315316 0.00694396 -0.00267723 4.82818e-06 7.36872e-06 -3.74381e-07 0.0005 1.46608e-07 
50 1 0.0166647 0.0233569 0.0126278 0.00609647 0.00247359 -0.00416523 4.17178e-09 1.25987e-08 1.91017e-08 0.0005 1.46608e-07 
51 1 0.02 0.0155552 0.0153952 0.00167204 0.00154392 -0.00106288 6.18304e-09 -3.55412e-07 -3.80957e-07 0.0005 1.46608e-07 
52 1 0.0220744 0.0236643 0.013593 0.000752005 -3.84154e-05 0.000278551 1.02745e-06 5.24003e-07 -9.76961e-07 0.0005 1.46608e-07 
53 1 0.0282689 0.0188391 0.015813 0.00125822 0.0224221 0.00166288 3.69035e-09 -9.03415e-10 -1.33092e-08 0.0005 1.46608e-07 
54 1 0.026456 0.023121 0.010072 0.00209988 -0.00662583 -0.0196302 6.93399e-09 -1.14737e-07 -1.32836e-07 0.0005 1.46608e-07 
55 1 0.0187437 0.0157147 0.0150554 -0.177395 -0.03918 -0.00861057 0 0 -1.43822e-06 0.0005 1.46608e-07 
57 1 0.0193249 0.0239729 0.0145046 -0.00758689 -0.0120608 -0.0239436 0 0 -1.43822e-06 0.0005 1.46608e-07 
58 1 0.0208106 0.0238494 0.0122644 0.00265533 -0.0028159 -0.000410072 -1.81316e-07 6.8689e-08 -5.01596e-07 0.0005 1.46608e-07 
59 1 0.0277721 0.0211188 0.0152904 0.0018734 0.0168725 -0.00906431 2.48264e-09 -1.24324e-08 -1.08718e-08 0.0005 1.46608e-07 
60 1 0.0179183 0.0231674 0.0175024 0.0516481 -0.0230098 0.0416239 0 0 -1.43822e-06 0.0005 1.46608e-07 
61 1 0.0236254 0.0171833 0.0155311 0.00632529 0.00808789 0.00424403 1.66361e-08 1.58364e-07 -2.90242e-08 0.0005 1.46608e-07 
62 1 0.0610421 0.0187951 0.0058864 6.08541e-15 2.71989e-14 1.94807e-13 3.41129e-20 5.92923e-21 -1.27055e-21 0.0005 1.46608e-07 
63 1 0.0240977 0.021346 0.0167474 -0.00600142 0.0186781 -0.0069814 -9.92833e-08 3.69431e-06 1.14094e-06 0.0005 1.46608e-07 
65 1 0.0205674 0.0146953 0.0158902 0.00491441 0.00145006 -0.000303745 -3.10063e-07 3.11881e-07 -1.2174e-06 0.0005 1.46608e-07 
66 1 0.0235959 0.0229409 0.0157253 3.26631e-05 0.000470852 -8.53878e-05 -6.93318e-08 3.45997e-07 -7.45361e-07 0.0005 1.46608e-07 
67 1 0.0217768 0.0213837 0.0153141 0.00513341 0.00145567 0.000509243 4.02285e-06 -1.31631e-05 3.68282e-06 0.0005 1.46608e-07 
68 1 0.017814 0.0159917 0.0153256 0.0311106 -0.0307571 -0.0474165 0 0 -1.43822e-06 0.0005 1.46608e-07 
69 1 0.0208375 0.0180505 0.0166792 0.0215314 -0.00213818 0.00287274 -4.76214e-07 4.19302e-07 6.33999e-08 0.0005 1.46608e-07 
70 1 0.0256621 0.0205544 0.0165331 -0.00425055 0.0130132 -0.00476829 -2.07983e-07 3.10792e-07 -1.25548e-07 0.0005 1.46608e-07 
71 1 0.01761 0.0219768 0.0160545 0.0123022 -0.0169862 0.0255269 -1.1631e-06 1.0662e-06 -5.06199e-07 0.0005 1.46608e-07 
72 1 0.0234258 0.0150171 0.0129584 0.00010915 0.00976758 0.0251705 1.11141e-08 5.18312e-08 1.30003e-07 0.0005 1.46608e-07 
73 1 0.0215733 0.0234854 0.0162488 0.000313571 -0.000211549 -9.99961e-05 7.92406e-08 1.72342e-06 -3.03908e-07 0.0005 1.46608e-07 
74 1 0.019664 0.0240877 0.0126888 -6.11066e-05 -0.000924745 -0.000123021 3.12204e-08 1.58883e-08 -1.50798e-09 0.0005 1.46608e-07 
75 1 0.0158425 0.0227494 0.0170019 0.00982141 -0.0179194 0.00739431 0 0 -1.43822e-06 0.0005 1.46608e-07 
76 1 0.0243602 0.0156751 0.00877058 0.000566772 -0.0143452 0.0185246 -6.31932e-09 3.29565e-09 2.48337e-08 0.0005 1.46608e-07 
77 1 0.0221276 0.0228067 0.0138288 0.00296704 2.03808e-05 0.000284759 -3.75417e-07 2.31757e-06 -3.5021e-06 0.0005 1.46608e-07 
78 1 0.0222397 0.0229265 0.0147844 0.00175955 9.06497e-06 -0.000121639 -2.68395e-06 3.66274e-06 -2.36929e-06 0.0005 1.46608e-07 
79 1 0.0185506 0.016681 0.0152591 4.80433e-06 0.0146341 0.00872479 -6.19431e-07 1.41282e-07 -4.3467e-07 0.0005 1.46608e-07 
80 1 0.0186769 0.0244776 0.0138083 -0.000222961 0.000315656 -0.000780925 1.25692e-08 1.32333e-09 4.42037e-08 0.0005 1.46608e-07 
81 1 0.0239877 0.0186392 0.0163848 0.0063338 0.00309408 -0.000995047 1.00581e-06 -1.15945e-07 7.779e-07 0.0005 1.46608e-07 
82 1 0.0236272 0.0150605 0.0150501 -0.00265079 0.00239972 -0.00715612 -3.38821e-07 1.95684e-07 -9.23176e-07 0.0005 1.46608e-07 
83 1 0.0184276 0.0235225 0.0143042 -0.0494755 -0.00748387 0.042481 2.32694e-05 1.14861e-05 -2.17463e-05 0.0005 1.46608e-07 
85 1 0.028595 0.0204057 0.0155767 -9.82524e-05 0.0235843 -0.00753644 1.68025e-09 1.98335e-09 -1.4265e-08 0.0005 1.46608e-07 
86 1 0.0162249 0.0235363 0.0152637 0.000431264 -0.000539936 0.000723702 7.17011e-07 -7.13589e-06 3.71827e-07 0.0005 1.46608e-07 
88 1 0.0170451 0.0204297 0.0157388 0.0190631 -0.0254011 0.0168542 0 0 -1.43822e-06 0.0005 1.46608e-07 
90 1 0.0240126 0.0149135 0.0103721 -1.62716e-05 -0.00851023 0.0219196 -1.82704e-08 3.19243e-08 -5.5786e-08 0.0005 1.46608e-07 
91 1 0.019725 0.0235595 0.0155038 -0.00200671 -0.000517761 -0.00201082 -1.57344e-06 -6.93379e-07 -6.21835e-07 0.0005 1.46608e-07 
92 1 0.0190441 0.0141257 0.0162057 0.0042732 -0.000755872 0.00390414 4.78573e-07 -1.06708e-06 1.10505e-06 0.0005 1.46608e-07 
93 1 0.0211144 0.0145733 0.0142818 0.00332733 -6.14837e-05 0.00245735 1.53645e-07 3.75196e-07 -3.5896e-07 0.0005 1.46608e-07 
94 1 0.0207699 0.0156695 0.0160241 0.00425635 0.00572691 -0.00625319 -1.00865e-06 -5.49459e-07 3.27532e-07 0.0005 1.46608e-07 
95 1 0.0197096 0.014598 0.0153853 0.00464278 0.00198668 0.00367477 2.60209e-06 5.2457e-07 1.22925e-08 0.0005 1.46608e-07 
96 1 0.00703557 0.0469296 -0.00711834 -0.0578876 0.108049 -1.18639 0 0 -1.43822e-06 0.0005 1.46608e-07 
97 1 0.0226599 0.0174214 0.0156357 0.00493187 0.00353549 0.000844469 -3.17353e-08 9.43603e-07 7.09965e-07 0.0005 1.46608e-07 
99 1 0.0227004 0.0165288 0.0161476 0.00700526 0.00457699 0.0114364 1.83394e-08 -2.78896e-09 -7.4042e-08 0.0005 1.46608e-07 
100 1 0.0189731 0.0222389 0.0167301 0.024349 0.0160385 -0.000345309 0 0 -1.43822e-06 0.0005 1.46608e-07 
101 1 0.0252092 0.0216302 0.0167484 -0.000370689 0.000950856 -0.000242284 -2.34297e-07 1.40335e-07 -1.0844e-07 0.0005 1.46608e-07 
102 1 0.0152459 0.0187799 0.0167704 -0.0050241 -0.00115286 0.000147824 8.34352e-08 6.6091e-07 5.71481e-08 0.0005 1.46608e-07 
103 1 0.0233417 0.022135 0.0167959 0.0246977 -0.0211417 -0.0230826 0 0 -1.43822e-06 0.0005 1.46608e-07 
104 1 0.0173796 0.0206021 0.018043 0.0380859 -0.0408861 0.0318739 0 0 -1.43822e-06 0.0005 1.46608e-07 
105 1 0.0180466 0.0228875 0.0163396 -0.00103828 -0.00662358 -0.0066045 0 0 -1.43822e-06 0.0005 1.46608e-07 
106 1 0.0248698 0.0173498 0.00751796 9.93784e-05 -0.0246328 0.00793148 9.79196e-09 2.20855e-09 1.14865e-08 0.0005 1.46608e-07 
107 1 0.0175468 0.0240629 0.0127797 -0.000164652 0.00469951 -0.00608011 -1.45076e-08 2.67902e-08 2.369e-07 0.0005 1.46608e-07 
108 1 0.0212721 0.0239448 0.0130914 0.000757335 -0.000180052 0.00110823 -3.64831e-08 -4.76469e-08 -2.66818e-07 0.0005 1.46608e-07 
109 1 0.0178843 0.0200412 0.017381 0.0144795 -0.0300323 -0.00194732 0 0 -1.43822e-06 0.0005 1.46608e-07 
110 1 0.0219875 0.0204881 0.0157084 0.00518024 -0.00524596 0.00322752 -2.88849e-07 2.6823e-06 1.01517e-06 0.0005 1.46608e-07 
111 1 0.0217437 0.0212396 0.0163234 0.00506925 0.00126141 -0.000247631 4.3982e-08 -4.15682e-07 -1.26453e-06 0.0005 1.46608e-07 
112 1 0.0172067 0.0151972 0.0153342 -0.00472175 -0.000609844 -0.00928343 -4.73264e-07 7.13983e-07 -8.41479e-08 0.0005 1.46608e-07 
113 1 0.0244925 0.0151834 0.00954239 -0.000287015 -0.012446 0.0216556 4.00887e-09 8.96895e-09 8.94783e-09 0.0005 1.46608e-07 
114 1 0.0215808 0.0188627 0.0167827 0.0106243 0.00938066 -4.4168e-05 -3.492e-07 5.59058e-07 4.03075e-08 0.0005 1.46608e-07 
116 1 0.0156747 0.0235256 0.0144403 0.00332062 0.00123772 -0.00123118 -9.69013e-07 1.21057e-06 -8.08518e-06 0.0005 1.46608e-07 
118 1 0.0166694 0.0224969 0.0155849 -0.0435829 -0.0603047 0.078372 0 0 -1.43822e-06 0.0005 1.46608e-07 
119 1 0.0184039 0.0154595 0.0141243 -0.00223769 0.000867285 -0.000857598 2.08801e-07 -7.94926e-07 1.57506e-06 0.0005 1.46608e-07 
120 1 0.0207001 0.0236718 0.0156965 0.00223405 -0.00802538 -0.0195439 0 0 -1.43822e-06 0.0005 1.46608e-07 
123 1 0.0243143 0.0224151 0.0157666 0.000252118 0.00215902 0.000175622 -4.01838e-07 3.37522e-08 -7.54243e-07 0.0005 1.46608e-07 
124 1 0.0172159 0.0242849 0.0180094 0.0172492 0.00999267 0.0643664 0 0 -1.43822e-06 0.0005 1.46608e-07 
125 1 0.0205825 0.0190329 0.0167754 0.00601877 0.0022715 0.00313048 -1.73878e-07 6.84735e-07 -3.18756e-07 0.0005 1.46608e-07 
126 1 0.0229679 0.0203034 0.0157792 0.0138721 0.0181523 -0.00504194 -7.81291e-07 8.41382e-07 4.87635e-08 0.0005 1.46608e-07 
127 1 0.0145457 0.018031 0.0166533 0.00223354 0.0121737 0.00205944 -1.17365e-07 3.8327e-07 8.71301e-08 0.0005 1.46608e-07 
128 1 0.0246511 0.0164692 0.0151141 0.00537989 0.00371385 0.00287234 -1.57467e-07 -2.1432e-07 -1.2991e-07 0.0005 1.46608e-07 
129 1 0.0232753 0.0181781 0.0158561 0.00563868 0.00366818 -3.56006e-06 -1.30824e-06 7.6177e-07 1.74226e-06 0.0005 1.46608e-07 
132 1 0.0220573 0.0219703 0.016931 0.00480382 0.00110023 0.00354815 -1.04412e-06 -1.88389e-06 -1.40548e-06 0.0005 1.46608e-07 
134 1 0.0142028 0.0218963 0.0177869 0.00193383 0.00161019 -0.000903307 -1.70058e-07 1.03864e-07 4.06122e-08 0.0005 1.46608e-07 
135 1 0.0214526 0.0229724 0.0153991 0.00124864 0.000904983 -0.00109772 5.92248e-06 -3.67564e-07 -8.05657e-09 0.0005 1.46608e-07 
136 1 0.0228891 0.0146102 0.0145432 0.000635101 0.0029961 -0.00397687 -4.29318e-07 2.13263e-07 -9.65415e-07 0.0005 1.46608e-07 
137 1 0.0224029 0.0185301 0.016195 0.00447754 0.0139081 -0.0116912 -2.32476e-06 1.97889e-08 7.06203e-07 0.0005 1.46608e-07 
138 1 0.0241149 0.0203468 0.0167144 -0.00234005 0.0188001 -0.00318513 2.50786e-07 3.87537e-08 -2.0544e-06 0.0005 1.46608e-07 
139 1 0.0213915 0.019856 0.0167134 0.00659198 0.000602733 -0.00147863 -3.76172e-06 2.59639e-06 3.59126e-06 0.0005 1.46608e-07 
140 1 0.0210653 0.0141384 0.0133817 0.00301639 -0.000384851 0.00455936 1.74137e-07 3.95425e-08 1.46683e-07 0.0005 1.46608e-07 
141 1 0.0211806 0.0234088 0.0145103 0.00404898 0.00588454 -0.0152833 0 0 -1.43822e-06 0.0005 1.46608e-07 
142 1 0.0236385 0.0147514 0.0118524 0.000997463 0.000634572 0.00978432 5.8371e-08 3.2325e-08 -7.7816e-08 0.0005 1.46608e-07 
143 1 0.0149483 0.022545 0.0175325 0.00634682 -0.00740735 -0.0187579 0 0 -1.43822e-06 0.0005 1.46608e-07 
144 1 0.0185714 0.0220753 0.0157901 0.00494829 0.00435889 -0.00343935 -1.43545e-08 -2.01069e-08 -1.58982e-06 0.0005 1.46608e-07 
145 1 0.0270925 0.0230571 0.0130067 0.00190506 0.014269 -0.0204309 1.00695e-08 -1.14153e-08 5.53404e-09 0.0005 1.46608e-07 
146 1 0.0131781 0.0194403 0.0173689 -0.0127575 0.00963625 -0.00388091 0 0 -1.43822e-06 0.0005 1.46608e-07 
147 1 0.0190885 0.0146136 0.0119517 -0.000412298 -0.0015291 0.00225523 1.02513e-07 2.05263e-07 -6.6524e-07 0.0005 1.46608e-07 
149 1 0.015083 0.0192203 0.0176561 -0.0066106 -0.030528 0.00547667 0 0 -1.43822e-06 0.0005 1.46608e-07 
150 1 0.0198239 0.0181394 0.0166708 0.0185639 -0.00924203 -0.000342028 -3.08192e-07 4.49259e-07 1.11562e-07 0.0005 1.46608e-07 
152 1 0.0182235 0.0141819 0.0126884 0.00613609 -0.00117636 0.00295348 1.66169e-08 1.33078e-07 5.58772e-07 0.0005 1.46608e-07 
153 1 0.0165837 0.0226859 0.017703 0.0279696 -0.0161475 0.00495667 0 0 -1.43822e-06 0.0005 1.46608e-07 
155 1 0.0197299 0.0190559 0.00718179 6.06896e-05 -0.0221792 -0.00203206 -3.57409e-06 5.45049e-06 1.9387e-07 0.0005 1.46608e-07 
156 1 0.0222868 0.0227927 0.0164106 -0.000379235 -0.000402262 -0.000633702 1.45196e-06 1.32768e-06 2.19645e-06 0.0005 1.46608e-07 
157 1 0.0190057 0.0180591 0.0072859 0.00129165 -0.0157899 0.00439712 1.18093e-07 -1.58937e-07 9.03722e-08 0.0005 1.46608e-07 
158 1 0.0228717 0.0165352 0.0151625 0.0018349 0.0154618 0.0105261 -1.68875e-07 -1.3552e-08 2.38751e-08 0.0005 1.46608e-07 
159 1 0.0155468 0.0146105 0.0143241 0.000467596 -0.000362534 -0.000510934 -2.84314e-08 -4.07307e-07 -7.54232e-07 0.0005 1.46608e-07 
160 1 0.0174264 0.0149414 0.0131926 0.00546074 0.000344634 0.000358481 -8.55173e-09 1.74916e-09 4.02025e-08 0.0005 1.46608e-07 
162 1 0.022703 0.0153738 0.0152691 -0.00170384 -0.00133775 6.57979e-05 2.5888e-07 -2.60196e-07 -5.54518e-07 0.0005 1.46608e-07 
163 1 0.0195375 0.0162566 0.0159401 0.00184153 -0.000636012 -0.00187829 -6.21569e-08 -1.85205e-07 -9.0201e-08 0.0005 1.46608e-07 
164 1 0.0176332 0.0187477 0.018763 0.245164 -0.203871 0.0905978 0 0 -1.43822e-06 0.0005 1.46608e-07 
165 1 0.0208587 0.0151601 0.015054 0.00530537 0.000381996 -0.00187155 -3.55439e-08 -1.62941e-07 -1.0694e-06 0.0005 1.46608e-07 
166 1 0.0155745 0.0178009 0.0166933 -0.0180383 -0.0174405 0.006514 0 0 -1.43822e-06 0.0005 1.46608e-07 
167 1 0.0183187 0.0235903 0.015342 -0.0190147 -0.00556098 0.000251411 9.25254e-06 2.42325e-05 6.57856e-07 0.0005 1.46608e-07 
168 1 0.0180131 0.0239244 0.01626 0.00144656 0.00406609 0.0138513 -2.03802e-06 -2.20487e-06 -3.9442e-06 0.0005 1.46608e-07 
169 1 0.0196845 0.0224908 0.015481 0.00288897 -0.00315882 -0.00201322 7.75464e-07 -3.2018e-07 -5.82079e-06 0.0005 1.46608e-07 
170 1 0.0222046 0.0195188 0.0159291 0.00282879 0.0146866 -0.000658508 -2.22285e-07 9.0804e-07 -1.63046e-07 0.0005 1.46608e-07 
171 1 0.019952 0.0241648 0.0162663 0.000182457 -0.00131451 -0.00235053 4.6882e-06 6.91434e-06 1.17223e-05 0.0005 1.46608e-07 
172 1 0.0147246 0.0231302 0.014932 0.00347713 -0.00829273 -0.0049864 0 0 -1.43822e-06 0.0005 1.46608e-07 
173 1 0.0153813 0.0226583 0.0140833 0.00466564 0.0028173 -0.00378049 -7.00487e-06 1.21063e-05 -2.10045e-05 0.0005 1.46608e-07 
175 1 0.0210743 0.0217335 0.0168876 0.0050636 0.00367394 0.00383908 5.26788e-08 4.8449e-08 -1.00767e-06 0.0005 1.46608e-07 
176 1 0.0178285 0.0153667 0.0161595 0.00335583 0.000141684 -0.00627544 0 0 -1.43822e-06 0.0005 1.46608e-07 
177 1 0.0167792 0.021454 0.0156312 0.0425429 -0.0854172 0.0260758 -2.0844e-05 3.87775e-05 -7.51885e-06 0.0005 1.46608e-07 
178 1 0.0190881 0.0243761 0.0169512 0.00429682 0.000258067 -0.000631758 7.93653e-06 3.59273e-06 4.13407e-06 0.0005 1.46608e-07 
180 1 0.0176364 0.0182816 0.0171413 0.0644667 -0.117689 -0.0152478 0 0 -1.43822e-06 0.0005 1.46608e-07 
181 1 0.0194089 0.019422 0.0167212 0.0189743 -0.0130937 -0.00313448 6.43863e-06 -1.02587e-05 -1.62757e-05 0.0005 1.46608e-07 
182 1 0.01856 0.0160363 0.0160233 0.0008784 0.00397105 -0.000616269 -6.114e-07 -2.49588e-07 -5.34885e-07 0.0005 1.46608e-07 
183 1 0.0164462 0.0220395 0.0164994 0.0816989 -0.0403407 0.0493682 0 0 -1.43822e-06 0.0005 1.46608e-07 
184 1 0.0212381 0.0229527 0.0136203 0.00438212 0.00224766 -0.0035204 -5.95537e-07 1.06677e-06 -3.66966e-06 0.0005 1.46608e-07 
185 1 0.0141343 0.0189455 0.0167478 0.00765131 0.00371459 0.000303 -2.16212e-07 6.8517e-07 4.35102e-08 0.0005 1.46608e-07 
187 1 0.0235929 0.0162134 0.0157758 0.00481704 0.00782164 0.00297758 -9.05427e-08 -3.40959e-08 5.3654e-08 0.0005 1.46608e-07 
188 1 0.0197414 0.0208268 0.0164582 0.0086003 -0.00626877 -0.00257852 -3.45788e-07 -3.85562e-07 -5.70043e-07 0.0005 1.46608e-07 
189 1 0.0209134 0.0207159 0.0165143 0.00921967 -0.000377126 -0.00350151 0 0 -1.43822e-06 0.0005 1.46608e-07 
190 1 0.017701 0.0146128 0.011953 0.00581929 -0.00123516 0.00254695 4.91986e-07 -5.62868e-08 -4.93262e-07 0.0005 1.46608e-07 
191 1 0.0189888 0.023965 0.0160452 -0.00125995 0.000514278 0.000630726 -1.94957e-06 -3.76408e-06 -3.05661e-06 0.0005 1.46608e-07 
192 1 0.0188458 0.020259 0.0166077 0.0232189 -0.00919618 0.000843654 -5.28552e-07 1.0508e-06 1.4978e-07 0.0005 1.46608e-07 
193 1 0.0200185 0.0221739 0.0167596 0.00569995 0.00677501 0.00716176 -7.91366e-06 -6.33798e-06 -2.61763e-07 0.0005 1.46608e-07 
194 1 0.0229389 0.0190182 0.016884 0.00488465 0.00539744 -0.00135002 -1.1417e-07 2.09722e-07 -8.38847e-07 0.0005 1.46608e-07 
195 1 0.0161223 0.0199207 0.0159612 0.0186239 -0.0778957 -0.0050633 0 0 -1.43822e-06 0.0005 1.46608e-07 
197 1 0.0238413 0.0207654 0.0155982 0.00369068 0.0160306 -0.00762243 0 0 -1.43822e-06 0.0005 1.46608e-07 
199 1 0.0207143 0.0223434 0.0156409 0.000979281 0.00225814 -0.000919498 -7.34134e-06 5.86668e-09 -3.03573e-07 0.0005 1.46608e-07 
200 1 0.0170976 0.0212465 0.016576 0.0566946 -0.0537447 0.0326147 0 0 -1.43822e-06 0.0005 1.46608e-07 
201 1 0.0189984 0.0229598 0.0160367 -0.00455248 0.00496261 -0.0112014 -3.06368e-06 3.8607e-07 4.35174e-06 0.0005 1.46608e-07 
202 1 0.0191739 0.0152542 0.015917 -0.000651665 0.00239046 -0.00195333 8.59246e-07 -5.75679e-07 -1.32502e-06 0.0005 1.46608e-07 
203 1 0.019111 0.0230581 0.0148886 -0.000461468 -0.00162182 0.00138715 0 0 -1.43822e-06 0.0005 1.46608e-07 
204 1 0.118145 0.0201427 0.00585321 -1.11305e-15 -1.75107e-14 8.4019e-14 3.14395e-20 5.29396e-23 2.11758e-22 0.0005 1.46608e-07 
205 1 0.0228656 0.0212711 0.0153531 0.0169785 -0.00360506 0.00384231 -3.30511e-07 1.18854e-06 -6.36209e-07 0.0005 1.46608e-07 
206 1 0.0177405 0.0176736 0.0157381 0.0344402 -0.0436722 -0.0234793 0 0 -1.43822e-06 0.0005 1.46608e-07 
207 1 0.020375 0.023011 0.0149785 -0.000153339 0.00184522 -0.000147622 2.87046e-06 5.96659e-06 -6.85197e-06 0.0005 1.46608e-07 
208 1 0.022743 0.0214445 0.0163362 0.0126146 0.00418262 0.00618449 0 0 -1.43822e-06 0.0005 1.46608e-07 
209 1 0.0213537 0.0227005 0.016828 0.00101868 -0.0065352 -0.00794528 -4.25848e-07 -7.06719e-07 5.25309e-07 0.0005 1.46608e-07 
210 1 0.0196509 0.0233562 0.0167719 0.000500492 -0.0035491 0.00041748 -7.80667e-07 6.26876e-07 -1.3824e-06 0.0005 1.46608e-07 
212 1 0.0186207 0.0211972 0.0162725 0.0276973 0.00458304 -0.0035804 -4.98283e-07 9.05493e-07 -3.43607e-07 0.0005 1.46608e-07 
213 1 0.0179588 0.0148157 0.0147968 0.00461976 0.000720289 0.00224802 1.65069e-06 9.36673e-07 -7.81758e-07 0.0005 1.46608e-07 
214 1 0.0210109 0.0232409 0.0127587 0.0053 0.000729854 -0.00487138 -1.49314e-07 3.17949e-07 -1.03216e-06 0.0005 1.46608e-07 
215 1 0.0158385 0.0231109 0.0133439 0.00623556 0.00240913 -0.00349007 -1.34914e-05 -2.52857e-06 -6.71818e-06 0.0005 1.46608e-07 
218 1 0.0189106 0.0185477 0.0167351 0.0173276 -0.018848 4.94741e-05 -8.40445e-08 1.92503e-07 -9.45156e-07 0.0005 1.46608e-07 
219 1 0.0152332 0.0225601 0.0159021 0.0193294 -0.0148143 -0.0165677 0 0 -1.43822e-06 0.0005 1.46608e-07 
220 1 0.0200392 0.0140205 0.0130218 -0.000220915 -0.000651591 0.000259873 1.52463e-07 1.34831e-07 -1.5625e-07 0.0005 1.46608e-07 
221 1 0.0187419 0.0221196 0.0186846 0.192543 -0.0559876 0.148284 0 0 -1.43822e-06 0.0005 1.46608e-07 
222 1 0.0182551 0.024842 0.0185414 0.0574289 0.0392421 0.0778254 -2.96695e-08 -4.86815e-07 -1.46359e-06 0.0005 1.46608e-07 
224 1 0.0201498 0.0147255 0.0144966 0.00311922 0.000371609 0.00214367 4.38999e-07 -6.10049e-07 -8.80662e-07 0.0005 1.46608e-07 
225 1 0.0167917 0.0203405 0.0170808 0.0546996 -0.0884862 0.0322478 0 0 -1.43822e-06 0.0005 1.46608e-07 
226 1 0.0244486 0.0179606 0.0158069 0.00438769 0.000450749 0.000930148 -1.28022e-07 3.76872e-07 1.07224e-07 0.0005 1.46608e-07 
227 1 0.0171465 0.0192496 0.0172751 0.0549735 -0.0592775 0.0277605 0 0 -1.43822e-06 0.0005 1.46608e-07 
228 1 0.018664 0.0234663 0.0168903 -0.00200594 -0.00371104 -0.00792626 2.87604e-07 3.76051e-08 -1.42177e-06 0.0005 1.46608e-07 
229 1 0.02605 0.0221583 0.00864787 0.000790679 -0.0149861 -0.0157092 1.07527e-08 -6.65853e-08 -6.77051e-09 0.0005 1.46608e-07 
230 1 0.0207298 0.0222438 0.00864215 -0.000329529 -0.0146944 -0.0152825 -2.95064e-07 1.55737e-07 9.71704e-08 0.0005 1.46608e-07 
231 1 0.0187647 0.0169174 0.00774271 7.81019e-05 -0.0225338 0.0120979 4.64217e-10 3.50993e-09 1.63825e-08 0.0005 1.46608e-07 
233 1 0.0193803 0.0147626 0.0128965 0.000875264 0.00106973 0.00105218 6.56021e-08 -9.32657e-08 -8.77498e-07 0.0005 1.46608e-07 
234 1 0.0153032 0.0155509 0.0154499 0.00254956 0.00123324 -0.00197219 0 0 -1.43822e-06 0.0005 1.46608e-07 
235 1 0.0195247 0.0143415 0.0138168 0.00341135 0.00117848 0.00221567 5.42006e-07 -1.97985e-08 9.47641e-09 0.0005 1.46608e-07 
236 1 0.0214771 0.0223993 0.0144422 0.003946 0.000480189 -0.00294377 -7.41297e-06 1.72929e-05 -1.40637e-05 0.0005 1.46608e-07 
237 1 0.0224959 0.0233827 0.0171904 -0.00368287 0.00353102 -0.0014357 -1.65338e-07 -3.45368e-07 -1.24739e-06 0.0005 1.46608e-07 
242 1 0.0178154 0.0144667 0.0157231 0.0039114 -0.00306177 -0.00131144 0 0 -1.43822e-06 0.0005 1.46608e-07 
244 1 0.014199 0.0228446 0.0157452 -0.00826159 0.0142392 -0.0213544 3.61027e-06 4.32143e-06 1.27968e-06 0.0005 1.46608e-07 
245 1 0.0161031 0.0198361 0.0176051 0.0724619 -0.05981 0.0199598 0 0 -1.43822e-06 0.0005 1.46608e-07 
246 1 0.0136913 0.0219897 0.0158504 0.0018392 0.00989742 -0.00806238 -3.67791e-06 1.53194e-06 -6.95088e-07 0.0005 1.46608e-07 
247 1 0.0163387 0.0236665 0.0172897 0.0166701 0.0251171 0.0359415 0 0 -1.43822e-06 0.0005 1.46608e-07 
249 1 0.0171065 0.0145587 0.0164233 0.000872743 0.00304341 -0.00501605 3.9918e-06 1.12448e-07 2.0381e-06 0.0005 1.46608e-07 
250 1 0.0199128 0.0219925 0.00832218 0.00119236 -0.00963101 -0.0111467 1.49697e-07 2.86891e-07 3.23853e-07 0.0005 1.46608e-07 
251 1 0.0194 0.0198472 0.00727077 0.0010854 -0.0246974 -0.00590741 -1.09664e-07 -1.12375e-06 2.74004e-07 0.0005 1.46608e-07 
252 1 0.0176224 0.014015 0.0135138 0.00688354 -0.000518431 -0.00307159 2.77633e-08 3.44811e-11 -3.72515e-08 0.0005 1.46608e-07 
253 1 0.0231886 0.0192568 0.0159456 0.000770233 0.0205322 -0.000344175 3.08405e-07 -4.25338e-07 -7.28075e-07 0.0005 1.46608e-07 
255 1 0.0161405 0.0187047 0.0172422 0.0351908 -0.110032 -0.0578686 0 0 -1.43822e-06 0.0005 1.46608e-07 
256 1 0.017333 0.0224409 0.0170393 0.0455112 -0.0164261 0.0171499 0 0 -1.43822e-06 0.0005 1.46608e-07 
257 1 0.0181236 0.024375 0.0172149 0.010565 0.00668749 0.0213024 -3.73748e-06 -1.1387e-06 -2.35431e-06 0.0005 1.46608e-07 
258 1 0.0163588 0.0142879 0.0138235 0.0023407 -7.56366e-05 -0.00194619 5.85279e-09 1.54357e-07 -1.09785e-06 0.0005 1.46608e-07 
259 1 0.0148019 0.020701 0.0185435 -0.0383315 -0.0698876 0.197242 0 0 -1.43822e-06 0.0005 1.46608e-07 
260 1 0.0165735 0.0142669 0.0147999 0.00526457 0.000394915 -0.00132955 1.48221e-08 2.57922e-08 -1.69396e-06 0.0005 1.46608e-07 
261 1 0.0167895 0.022981 0.0135691 0.00374801 0.000507279 0.00259702 -1.41071e-05 -2.34242e-06 7.6197e-06 0.0005 1.46608e-07 
262 1 0.0228368 0.0222612 0.0156934 -0.00242483 -0.00085113 -0.00190028 -8.52114e-07 6.63708e-06 -3.31055e-07 0.0005 1.46608e-07 
263 1 0.0134087 0.0210092 0.0182079 0.000370489 0.00218756 0.000779449 -1.43696e-07 3.55503e-07 8.4725e-07 0.0005 1.46608e-07 
264 1 0.0160969 0.0151176 0.0150229 0.00266448 -0.00049657 3.15608e-07 -7.11601e-08 -4.28134e-07 -3.26604e-07 0.0005 1.46608e-07 
265 1 0.0215927 0.0233712 0.0122807 0.00458557 -0.00186774 -0.00626231 -9.78786e-08 -7.1991e-08 -1.29008e-06 0.0005 1.46608e-07 
266 1 0.0145952 0.0161289 0.0158612 -0.00139007 -0.000249466 -0.000711192 2.59155e-08 -1.90072e-07 -9.48201e-08 0.0005 1.46608e-07 
267 1 0.0160319 0.0161529 0.0159247 -0.00602918 -0.000853055 -0.00337279 -1.2104e-06 2.23397e-06 2.34981e-06 0.0005 1.46608e-07 
268 1 0.021184 0.0165745 0.0161446 0.00268326 -5.25624e-06 -0.000858148 -7.4689e-08 -1.37646e-07 -4.78161e-08 0.0005 1.46608e-07 
269 1 0.0208297 0.0239727 0.0167066 0.00122946 -0.000933325 0.00388483 0 0 -1.43822e-06 0.0005 1.46608e-07 
270 1 0.012262 0.019524 0.0165752 0.00256067 0.000870655 -0.00494319 0 0 -1.43822e-06 0.0005 1.46608e-07 
271 1 0.0157476 0.0223622 0.0150332 -0.0375791 -0.0359496 -0.0197273 0 0 -1.43822e-06 0.0005 1.46608e-07 
272 1 0.0161984 0.021428 0.0180254 0.0594909 -0.0866113 0.101965 0 0 -1.43822e-06 0.0005 1.46608e-07 
274 1 0.0156168 0.0234912 0.0188372 0.0152571 0.0491199 0.00201271 0 0 -1.43822e-06 0.0005 1.46608e-07 
275 1 0.0171009 0.0157554 0.0144864 0.025105 -0.0609813 -0.0601924 2.83412e-08 -3.44648e-07 -1.11126e-07 0.0005 1.46608e-07 
276 1 0.0203395 0.0136947 0.0139064 -7.2288e-05 -0.000190635 5.25817e-05 5.47532e-08 3.59185e-08 -3.56453e-08 0.0005 1.46608e-07 
277 1 0.0180934 0.0217915 0.0169262 0.0425914 -0.0193679 0.00101837 0 0 -1.43822e-06 0.0005 1.46608e-07 
278 1 0.0171407 0.0239866 0.0167446 0.0105844 0.0126612 0.0312415 1.4598e-07 -1.42274e-06 -1.15829e-07 0.0005 1.46608e-07 
281 1 0.0150668 0.0198224 0.0167208 -0.0217185 -0.0285678 0.00314965 -0.00012601 -0.000119086 5.13643e-05 0.0005 1.46608e-07 
282 1 0.018529 0.0208692 0.0173353 0.0487556 -0.0289429 0.0252725 0 0 -1.43822e-06 0.0005 1.46608e-07 
283 1 0.0191588 0.0149424 0.0145275 0.00324143 0.0058491 -0.00183329 4.01512e-07 -5.86411e-07 -5.55345e-07 0.0005 1.46608e-07 
284 1 0.0183578 0.0141239 0.0141903 0.000885583 5.61726e-05 -0.000492575 2.01961e-08 1.42415e-07 -1.09374e-07 0.0005 1.46608e-07 
285 1 0.0177232 0.0212663 0.0153601 0.00442113 0.0086081 -0.00313079 1.83868e-05 -3.92255e-05 5.72083e-06 0.0005 1.46608e-07 
286 1 0.0194015 0.0213802 0.0172185 0.0103552 0.00134956 -0.00353478 3.45788e-07 3.85562e-07 -2.3064e-06 0.0005 1.46608e-07 
287 1 0.0174556 0.018529 0.0161867 0.0457239 -0.0322554 -0.0118892 0 0 -1.43822e-06 0.0005 1.46608e-07 
288 1 0.0190792 0.0171922 0.016399 0.000869045 0.00363533 0.000442535 4.45796e-09 -2.36727e-08 -2.5565e-08 0.0005 1.46608e-07 
289 1 0.0129 0.0187066 0.0167423 -0.00500255 -0.000170164 0.00242788 1.72742e-08 1.21685e-07 -1.19616e-06 0.0005 1.46608e-07 
290 1 0.0134587 0.0161218 0.0158446 0.00174249 -0.00236853 -0.00110984 4.44913e-08 -7.36712e-08 -8.9872e-09 0.0005 1.46608e-07 