ITEM: TIMESTEP
19000000
ITEM: NUMBER OF ATOMS
118
ITEM: BOX BOUNDS ff ff ff
-0.02 0.43
-0.02 0.06
-0.02 0.07
ITEM: ATOMS id type x y z vx vy vz fx fy fz radius mass 
1 1 0.0366737 0.0223318 0.0142283 -2.31805e-06 0.0183927 -0.018629 -2.67615e-10 -1.08972e-08 -1.21284e-08 0.0005 1.46608e-07 
8 1 0.0768534 0.018764 0.00589219 -3.60651e-15 2.17001e-14 8.31846e-14 -3.46132e-19 -1.15938e-19 1.58819e-20 0.0005 1.46608e-07 
9 1 0.0224286 0.0149917 0.0133283 0.00463727 0.000536009 0.0047896 -5.94831e-07 -2.45896e-07 -5.28187e-07 0.0005 1.46608e-07 
11 1 0.0650666 0.0182067 0.00579668 1.16747e-15 -5.58095e-15 -9.51142e-14 1.68414e-21 2.91168e-22 0 0.0005 1.46608e-07 
14 1 0.0445122 0.01545 0.013806 -0.000723335 0.0102013 0.0217334 -1.02774e-08 2.77138e-08 -4.10424e-09 0.0005 1.46608e-07 
15 1 0.0458678 0.0162672 0.00825205 0.00311603 -0.00883725 0.00753869 -3.13812e-08 -5.38332e-08 6.34841e-08 0.0005 1.46608e-07 
16 1 0.0297058 0.0231457 0.0100508 0.000338189 -0.00794655 -0.0234962 -2.11707e-10 -1.53233e-08 -4.93099e-10 0.0005 1.46608e-07 
18 1 0.0440955 0.016684 0.0150464 0.000551599 0.0201694 0.0128962 -4.79109e-09 1.7443e-08 -2.92573e-09 0.0005 1.46608e-07 
19 1 0.0349059 0.0212284 0.00783453 0.0026688 -0.00789503 -0.00344163 -4.54537e-06 3.57912e-07 -2.77655e-06 0.0005 1.46608e-07 
21 1 0.0323531 0.0158781 0.0144105 0.00080392 0.0160896 0.0169005 -9.82692e-09 2.72682e-08 9.77559e-09 0.0005 1.46608e-07 
22 1 0.0818515 0.0198441 0.0060177 8.7014e-16 2.44513e-15 -1.05024e-14 2.69992e-21 1.32349e-21 4.23516e-22 0.0005 1.46608e-07 
23 1 0.0591852 0.0175257 0.00598648 -1.30258e-14 2.70456e-14 3.32733e-13 -8.58944e-21 2.26317e-21 -1.48231e-21 0.0005 1.46608e-07 
26 1 0.0179754 0.0233664 0.0111392 0.00381537 -0.0012797 -0.0113937 -1.08885e-08 5.01294e-08 5.31253e-08 0.0005 1.46608e-07 
32 1 0.0888329 0.0186042 0.00572716 -1.16846e-14 1.69578e-14 2.26606e-13 -1.85156e-20 -1.50745e-20 4.23516e-22 0.0005 1.46608e-07 
33 1 0.0468356 0.0202604 0.00743616 -0.000354571 -0.0237435 -0.0076947 -1.72194e-08 -1.55318e-08 4.74863e-12 0.0005 1.46608e-07 
38 1 0.154353 0.0180393 0.00580707 8.8607e-15 -2.34385e-14 1.8955e-13 -5.54277e-20 2.00906e-20 6.35275e-21 0.0005 1.46608e-07 
40 1 0.0196592 0.0139828 0.012999 -2.75641e-05 0.00076916 -0.00127688 7.11335e-10 -2.21276e-08 3.66494e-08 0.0005 1.46608e-07 
41 1 0.0294732 0.022618 0.00900488 0.000356633 -0.0139086 -0.0185892 -3.97698e-09 -2.08602e-08 -4.52895e-09 0.0005 1.46608e-07 
45 1 0.0453257 0.0186085 0.00602312 5.11881e-15 2.85434e-14 1.96515e-13 6.5248e-21 -2.83227e-21 4.23516e-22 0.0005 1.46608e-07 
47 1 0.0428346 0.0219404 0.0146293 -2.61318e-05 0.0209022 -0.0153207 6.97048e-08 -6.74912e-08 3.9442e-08 0.0005 1.46608e-07 
48 1 0.0253594 0.019723 0.0158582 0.00453726 0.00389217 -0.00137164 1.41034e-08 -6.51355e-09 5.7006e-09 0.0005 1.46608e-07 
50 1 0.0373374 0.0197836 0.0157744 0.00119486 0.0175252 -0.00150346 2.2337e-07 -2.51916e-07 -2.00596e-07 0.0005 1.46608e-07 
53 1 0.0477757 0.0232036 0.0104366 0.00102106 -0.00486342 -0.0206671 -1.22003e-07 -1.86945e-07 3.03589e-07 0.0005 1.46608e-07 
54 1 0.0800452 0.0202034 0.00595135 -1.84736e-15 -5.16474e-15 2.21374e-14 2.64698e-23 0 -4.23516e-22 0.0005 1.46608e-07 
55 1 0.0214798 0.0152741 0.0138588 0.0106942 0.00128354 -0.00169774 0 0 -1.43822e-06 0.0005 1.46608e-07 
59 1 0.0471064 0.0215439 0.0079991 0.000520091 -0.0195762 -0.0127882 -3.72192e-09 -1.99686e-08 4.24758e-09 0.0005 1.46608e-07 
61 1 0.0435406 0.0190445 0.0157883 0.000381205 0.0235424 -0.00101044 2.11441e-07 1.89344e-07 1.30939e-08 0.0005 1.46608e-07 
62 1 0.081496 0.0187826 0.00576095 1.34784e-14 4.56345e-14 1.93311e-13 1.50878e-21 8.31151e-21 -2.11758e-21 0.0005 1.46608e-07 
63 1 0.0407968 0.0202333 0.00732735 0.000542958 -0.0226716 -0.0057286 -1.08704e-08 -2.90951e-08 7.32437e-09 0.0005 1.46608e-07 
67 1 0.0426123 0.0225825 0.0139804 2.30108e-05 0.0163751 -0.0197427 -3.0714e-08 -1.10553e-08 2.19736e-08 0.0005 1.46608e-07 
77 1 0.042241 0.0232893 0.0123373 0.000708217 0.00502081 -0.0222152 -1.25043e-07 -1.72419e-07 9.66853e-07 0.0005 1.46608e-07 
80 1 0.0326084 0.0151691 0.0132682 3.18986e-05 0.00853171 0.0213149 -9.0642e-09 -4.06021e-08 -1.79909e-07 0.0005 1.46608e-07 
82 1 0.0432324 0.0202275 0.0156335 0.000241766 0.0242494 -0.00605558 6.93833e-09 -1.36676e-08 -2.30565e-08 0.0005 1.46608e-07 
83 1 0.0275336 0.0153703 0.00928517 0.000389948 -0.0116593 0.0205978 -4.29452e-09 4.92392e-09 1.97454e-08 0.0005 1.46608e-07 
85 1 0.048068 0.023327 0.0116934 -0.000274306 0.00291982 -0.0249321 1.02984e-09 -1.78972e-08 -1.59974e-08 0.0005 1.46608e-07 
88 1 0.0217604 0.0143143 0.0138934 0.00407331 0.00107132 0.00305512 -2.17867e-07 4.2094e-07 -9.39055e-07 0.0005 1.46608e-07 
93 1 0.0351582 0.0218359 0.00814586 0.00458242 -0.00495209 -0.00550537 4.3276e-06 2.19895e-06 7.59728e-07 0.0005 1.46608e-07 
95 1 0.0397625 0.0159996 0.00852945 0.000671807 -0.0152739 0.0171199 -5.80303e-09 -1.54235e-08 2.39117e-08 0.0005 1.46608e-07 
99 1 0.028405 0.0185812 0.00719189 0.00168905 -0.0228119 0.00226433 6.9286e-09 2.51392e-09 4.03072e-08 0.0005 1.46608e-07 
101 1 0.0402149 0.0177221 0.00740179 0.000205318 -0.0234771 0.00763661 -1.07406e-09 -2.64181e-09 1.58412e-08 0.0005 1.46608e-07 
102 1 0.0865114 0.0176774 0.00596015 -7.7432e-16 2.25659e-14 7.79343e-14 3.58335e-20 1.42937e-21 2.11758e-22 0.0005 1.46608e-07 
106 1 0.0457241 0.0172726 0.0062068 5.11155e-15 2.85452e-14 1.96515e-13 7.33875e-21 -5.55865e-22 0 0.0005 1.46608e-07 
108 1 0.0341086 0.0172801 0.00764222 -0.000318366 -0.0170429 0.00680746 -2.39323e-09 -2.25637e-08 -3.31151e-09 0.0005 1.46608e-07 
112 1 0.00197664 0.0139506 0.0435188 -9.69236e-317 -9.6912e-317 3.10717e-12 0 0 0 0.0005 1.46608e-07 
116 1 0.025698 0.0204239 0.0156984 0.00145232 0.0010653 -0.000665889 1.44836e-08 -1.63178e-08 -3.01043e-08 0.0005 1.46608e-07 
123 1 0.0910328 0.0189119 0.00581756 -1.03396e-14 1.48968e-14 1.99437e-13 3.70577e-22 2.64698e-23 0 0.0005 1.46608e-07 
125 1 0.04903 0.0215068 0.00642001 0.00433852 -0.0426047 -0.0238797 1.44962e-08 -1.2266e-07 -6.88687e-08 0.0005 1.46608e-07 
127 1 0.0236403 0.0196965 0.0167222 -9.56604e-09 0.0289038 -0.00340236 -2.00737e-14 -2.56339e-09 -2.31874e-08 0.0005 1.46608e-07 
128 1 0.0380561 0.0167419 0.0151258 0.00249037 0.0162279 0.00925266 -2.14322e-08 5.90605e-08 1.23299e-08 0.0005 1.46608e-07 
135 1 0.0795066 0.0193833 0.00575785 1.70228e-15 5.74284e-15 2.42881e-14 -5.29396e-23 -5.29396e-23 -2.11758e-22 0.0005 1.46608e-07 
136 1 0.0206915 0.014983 0.0133155 0.0048385 0.000642091 0.00518266 4.87696e-07 4.27118e-07 1.52813e-06 0.0005 1.46608e-07 
137 1 0.0205151 0.0154867 0.0141612 0.00299168 0.00100987 0.00241005 0 0 -1.43822e-06 0.0005 1.46608e-07 
138 1 0.0235777 0.0229217 0.00956068 0.00224059 -0.00541318 -0.0107482 3.5465e-06 -4.48751e-06 -5.17443e-06 0.0005 1.46608e-07 
141 1 0.0679057 0.0197258 0.00574271 -4.20836e-15 1.99912e-14 3.40748e-13 -1.35922e-20 6.08805e-22 -2.11758e-22 0.0005 1.46608e-07 
143 1 0.0363962 0.0230449 0.0131717 0.000853925 0.00912439 -0.0216801 -3.07527e-09 -9.71589e-09 -1.47679e-08 0.0005 1.46608e-07 
144 1 0.027876 0.01622 0.00824106 0.000270694 -0.0190276 0.0160782 5.14717e-10 4.3652e-09 1.41525e-08 0.0005 1.46608e-07 
145 1 0.0466398 0.019434 0.00719871 0.00221783 -0.0161954 -0.000651574 -2.00549e-08 -4.82363e-08 -4.24189e-09 0.0005 1.46608e-07 
155 1 0.0418421 0.0232956 0.0106644 0.000250698 -0.0056903 -0.0218899 2.947e-07 -5.12617e-08 1.67158e-07 0.0005 1.46608e-07 
158 1 0.0311317 0.0206605 0.0154674 0.00017292 0.0170239 -0.00675759 -1.11725e-08 1.34298e-08 -3.17621e-08 0.0005 1.46608e-07 
162 1 0.0379095 0.0187726 0.00571644 1.83331e-20 1.45333e-21 1.8267e-20 0 0 0 0.0005 1.46608e-07 
164 1 0.0291188 0.0215652 0.00797225 0.0024287 -0.0151176 -0.0104094 -1.58727e-08 -3.29975e-08 -1.83616e-08 0.0005 1.46608e-07 
172 1 0.0304713 0.0228293 0.0135391 0.000178896 0.0127031 -0.0220964 -5.59432e-10 -1.0698e-08 -1.30422e-08 0.0005 1.46608e-07 
177 1 0.0409841 0.0211166 0.0077123 0.000159377 -0.0217958 -0.0131344 -1.39327e-09 -1.08688e-08 9.48178e-09 0.0005 1.46608e-07 
180 1 0.0357688 0.0232222 0.0104172 0.00413923 -0.00479329 -0.0112194 -1.76435e-06 1.01634e-06 1.45227e-06 0.0005 1.46608e-07 
181 1 0.0337972 0.0159919 0.00844964 0.000508665 -0.0169578 0.017288 -3.34611e-09 2.881e-09 1.82215e-08 0.0005 1.46608e-07 
190 1 0.0133546 0.00211829 0.0435188 -9.71277e-317 -9.74727e-317 1.79684e-12 0 0 0 0.0005 1.46608e-07 
191 1 0.0414482 0.0225125 0.0089436 0.00168745 -0.00956061 -0.0167962 1.73649e-08 -5.76121e-09 8.50162e-08 0.0005 1.46608e-07 
197 1 0.0935581 0.0183371 0.00588747 1.06081e-14 1.89585e-14 2.48643e-13 1.86744e-20 5.84982e-21 -1.05879e-21 0.0005 1.46608e-07 
199 1 0.0226458 0.0146258 0.0142383 0.00577501 0.00677653 -0.00589802 -4.3115e-07 3.02459e-07 -8.77562e-07 0.0005 1.46608e-07 
204 1 0.118145 0.0201427 0.00585321 -1.10639e-15 -1.75116e-14 8.40189e-14 2.38228e-21 -1.05879e-22 0 0.0005 1.46608e-07 
205 1 0.0430489 0.0211291 0.0152919 0.0026336 0.0138165 -0.0065241 1.86052e-09 1.40894e-08 -1.16244e-07 0.0005 1.46608e-07 
209 1 0.031633 0.0187268 0.0158115 0.000592766 0.0244094 0.00342418 6.28954e-09 -3.30979e-09 -1.23041e-08 0.0005 1.46608e-07 
212 1 0.0389352 0.0148845 0.0118639 -0.00111778 -0.000302188 0.0188464 1.8873e-08 -1.60083e-08 -1.32886e-08 0.0005 1.46608e-07 
221 1 0.0399912 0.0166806 0.00789753 0.000786286 -0.0104128 0.00575508 -1.36354e-09 2.4643e-08 2.32793e-08 0.0005 1.46608e-07 
225 1 0.0174061 0.0141311 0.0133405 -0.0189174 0.00103157 0.00812399 0 0 -1.43822e-06 0.0005 1.46608e-07 
226 1 0.0437656 0.0180794 0.0157109 2.06885e-05 0.0248843 0.00869336 1.49891e-06 -2.803e-07 -9.28308e-07 0.0005 1.46608e-07 
227 1 0.025058 0.0210556 0.0154738 0.00214207 0.00149172 -0.00144928 -4.17769e-09 -8.22155e-09 -4.03724e-09 0.0005 1.46608e-07 
229 1 0.045688 0.0157788 0.00883338 0.00240622 -0.00963545 0.0141481 -1.03548e-08 -2.03276e-08 3.89126e-08 0.0005 1.46608e-07 
230 1 0.0286397 0.019462 0.00720899 0.00033415 -0.0252716 -0.00433156 4.04623e-10 1.9349e-08 1.64586e-08 0.0005 1.46608e-07 
234 1 0.021411 0.015108 0.00974347 0.001868 -0.00813437 0.0158737 3.19761e-09 2.99869e-08 1.05752e-08 0.0005 1.46608e-07 
235 1 0.0416263 0.0229731 0.00981631 -0.000113716 -0.00863001 -0.0186804 -3.3206e-08 -3.53091e-08 -2.93527e-08 0.0005 1.46608e-07 
242 1 0.0308959 0.0217802 0.0148734 0.00169686 0.0159232 -0.0123599 -1.16512e-08 -1.36704e-08 -2.18579e-08 0.0005 1.46608e-07 
244 1 0.0302736 0.0232486 0.0126068 0.000767232 0.00646807 -0.0193073 4.68446e-09 -2.4272e-08 -4.60428e-09 0.0005 1.46608e-07 
250 1 0.0420561 0.0233858 0.011452 0.00130507 0.00160335 -0.0228668 2.09938e-07 -2.99886e-07 2.30019e-07 0.0005 1.46608e-07 
253 1 0.032046 0.0167962 0.0151574 0.000698599 0.0183654 0.0120294 -9.22916e-09 3.00109e-08 1.1088e-09 0.0005 1.46608e-07 
255 1 0.00841998 0.0220148 0.0065957 5.41143e-15 -2.42559e-14 6.93182e-14 1.23098e-19 2.38281e-19 7.60212e-20 0.0005 1.46608e-07 
257 1 0.0267773 0.0149695 0.0125507 0.00181732 0.00688663 0.0199202 -3.46322e-08 5.07927e-08 9.52408e-08 0.0005 1.46608e-07 
265 1 0.0405274 0.0188996 0.0071902 1.0923e-05 -0.0260572 -0.000347626 -2.81393e-09 -9.25776e-09 1.45113e-08 0.0005 1.46608e-07 
266 1 0.0377499 0.0181778 0.0156432 0.000218235 0.0248355 0.00590215 -5.21364e-09 7.69304e-09 -1.35903e-08 0.0005 1.46608e-07 
270 1 0.0232463 0.0219126 0.00845668 0.000459292 -0.0184446 -0.0156437 -2.85451e-09 -1.73325e-08 6.0567e-09 0.0005 1.46608e-07 
271 1 0.0424092 0.0230346 0.0132095 0.000172272 0.00873841 -0.0219591 -9.10674e-08 -1.20602e-07 2.3673e-07 0.0005 1.46608e-07 
275 1 0.0314102 0.0195971 0.015779 0.000843049 0.0224711 -0.00414148 -6.37455e-09 1.2108e-08 -1.8672e-08 0.0005 1.46608e-07 
278 1 0.0782288 0.0198438 0.00578293 -3.51548e-15 6.10514e-14 -2.25396e-13 -7.11375e-22 -5.29396e-23 0 0.0005 1.46608e-07 
283 1 0.0288826 0.0206253 0.00750297 0.000210227 -0.0229468 -0.0089013 -4.84686e-10 -1.16085e-08 1.03947e-08 0.0005 1.46608e-07 
284 1 0.0780286 0.0188727 0.00591489 -8.16368e-15 4.89588e-14 1.88192e-13 -8.99973e-22 2.11758e-22 0 0.0005 1.46608e-07 
294 1 0.0227919 0.0171078 0.00655212 2.64723e-14 -5.64328e-14 -2.04449e-13 9.52912e-22 -1.85288e-21 6.35275e-22 0.0005 1.46608e-07 
297 1 0.0443052 0.0159898 0.0145192 0.000838897 0.0164642 0.0150392 -9.78984e-09 3.43525e-08 6.89482e-09 0.0005 1.46608e-07 
298 1 0.0318432 0.0176089 0.0155051 -6.64755e-05 0.0239935 0.00706313 -3.26871e-08 6.43536e-08 2.7512e-08 0.0005 1.46608e-07 
300 1 0.0370803 0.0207182 0.0153797 0.000589446 0.0209791 -0.0103527 -5.49107e-09 7.63537e-09 -2.05753e-08 0.0005 1.46608e-07 
301 1 0.0412608 0.0219532 0.00832619 0.000854016 -0.0186421 -0.014074 -3.88913e-10 -6.27291e-10 1.84994e-08 0.0005 1.46608e-07 
303 1 0.0384042 0.0157035 0.0141643 0.000206964 0.0155791 0.0190569 -1.13793e-09 1.77998e-08 -1.31087e-09 0.0005 1.46608e-07 
304 1 0.035363 0.0222478 0.00864112 0.00448788 -0.0058771 -0.0087988 -8.13174e-07 -2.54366e-06 2.12187e-06 0.0005 1.46608e-07 
307 1 0.0183883 0.0190722 0.0252429 0.557923 0.53991 0.858013 0 0 -1.43822e-06 0.0005 1.46608e-07 
312 1 0.0215643 0.01464 0.0129685 0.00475233 0.00158448 0.00310191 2.80137e-07 5.94582e-07 -2.69267e-07 0.0005 1.46608e-07 
314 1 0.0300316 0.0233819 0.0113879 0.000252492 0.000278255 -0.0253271 -6.6781e-10 -1.4925e-08 -5.69962e-09 0.0005 1.46608e-07 
315 1 0.00842114 0.0323835 0.0435188 -9.72922e-317 -9.70169e-317 -1.69736e-12 0 0 0 0.0005 1.46608e-07 
316 1 0.045524 0.0148595 0.00780395 -0.0252623 0.0779705 -0.0407904 0 0 -1.43822e-06 0.0005 1.46608e-07 
318 1 0.033406 0.0151312 0.00974585 2.9945e-05 -0.00517902 0.00991552 -4.92694e-07 2.64592e-06 -2.16906e-05 0.0005 1.46608e-07 
320 1 0.0817197 0.0176912 0.00600296 4.51267e-15 1.52768e-14 6.47201e-14 -8.73503e-22 -1.05879e-22 0 0.0005 1.46608e-07 
322 1 0.0388831 0.0190336 0.00572799 3.3827e-16 -2.05676e-15 1.00229e-14 -9.90698e-20 -3.68459e-20 -3.17637e-21 0.0005 1.46608e-07 
325 1 0.0185721 0.013995 0.0129787 -0.00417577 -0.00148783 0.00246986 1.94025e-07 -2.16291e-08 3.64151e-08 0.0005 1.46608e-07 
326 1 0.0209559 0.0146522 0.0121751 0.00500598 0.00145719 0.00317199 -2.1461e-07 2.09652e-08 -1.18208e-08 0.0005 1.46608e-07 
328 1 0.0330431 0.0147516 0.0114796 0.000206745 -0.00172993 0.0258342 -2.18133e-10 1.58601e-08 4.07712e-09 0.0005 1.46608e-07 
329 1 0.0623783 0.0182526 0.00592036 6.09285e-15 2.7202e-14 1.94807e-13 -1.55642e-20 7.94093e-23 4.23516e-22 0.0005 1.46608e-07 
331 1 0.062856 0.0173563 0.00601538 5.79394e-15 1.42979e-14 1.12905e-13 2.61521e-20 1.4029e-21 -1.27055e-21 0.0005 1.46608e-07 
333 1 0.0392293 0.0148725 0.0106586 0.000409387 -0.00344534 0.02325 -2.76196e-09 1.36818e-08 1.38133e-08 0.0005 1.46608e-07 
338 1 0.0281094 0.0172734 0.00755311 0.000557102 -0.0196082 0.0081072 3.22946e-09 6.57842e-09 4.40651e-08 0.0005 1.46608e-07 
340 1 0.0393955 0.0151075 0.00974224 -0.000129924 -0.0125695 0.0229219 -1.39206e-09 1.18242e-08 8.43177e-09 0.0005 1.46608e-07 
