ITEM: TIMESTEP
9000000
ITEM: NUMBER OF ATOMS
177
ITEM: BOX BOUNDS ff ff ff
-0.02 0.43
-0.02 0.06
-0.02 0.07
ITEM: ATOMS id type x y z vx vy vz fx fy fz radius mass 
1 1 0.0245903 0.0204242 0.00755291 -0.000124326 -0.0208296 -0.0148613 -4.66172e-08 1.14573e-08 5.59284e-08 0.0005 1.46608e-07 
5 1 0.015438 0.0223867 0.014687 6.04378e-05 -0.00129003 -0.00927185 0 0 -1.43822e-06 0.0005 1.46608e-07 
6 1 0.0200121 0.0236249 0.0128955 0.00495654 -0.00238214 -0.00613096 8.04885e-06 -3.4951e-06 1.01672e-05 0.0005 1.46608e-07 
8 1 0.0331987 0.0192189 0.0158084 0.00221636 0.013879 0.00122999 -2.91382e-07 1.53987e-07 1.02608e-08 0.0005 1.46608e-07 
9 1 0.0219456 0.0203109 0.015763 0.00477027 0.000337671 0.00144158 1.47176e-06 -4.28712e-06 4.04443e-07 0.0005 1.46608e-07 
11 1 0.0223913 0.0149792 0.0133074 0.00485448 0.000653095 0.00468899 -3.63578e-07 7.41851e-08 -9.57576e-07 0.0005 1.46608e-07 
14 1 0.0315534 0.0215913 0.00797284 0.00197964 -0.0161647 -0.0131488 -7.00202e-06 3.2191e-06 1.84522e-06 0.0005 1.46608e-07 
15 1 0.0326842 0.0211837 0.0151636 3.55702e-05 0.0224787 -0.0120325 -1.6303e-10 -4.15164e-09 -1.53815e-08 0.0005 1.46608e-07 
16 1 0.0220837 0.0227635 0.0139347 -0.000567953 0.000779032 0.001508 2.34563e-06 -1.55883e-06 2.06181e-06 0.0005 1.46608e-07 
18 1 0.0315437 0.0233071 0.0105724 0.00139201 -0.00307339 -0.0215824 3.03695e-08 3.38187e-08 1.19811e-07 0.0005 1.46608e-07 
19 1 0.0232326 0.0208974 0.0164843 0.00199218 0.00250572 0.00439327 -5.04164e-06 -6.33932e-06 2.28154e-06 0.0005 1.46608e-07 
21 1 0.0227741 0.0169035 0.0153887 0.00316399 0.00316324 0.00204787 -7.37031e-08 -4.5748e-08 -4.57421e-09 0.0005 1.46608e-07 
22 1 0.0183645 0.0236159 0.0141249 -0.00212926 -0.00100024 -0.00165332 -3.56095e-07 -2.47869e-07 1.11962e-06 0.0005 1.46608e-07 
23 1 0.0211782 0.023976 0.013071 7.1067e-05 0.000682374 -0.000428979 1.4443e-05 5.05748e-07 3.53905e-06 0.0005 1.46608e-07 
26 1 0.0148829 0.0223371 0.0155529 0.00138508 0.00255706 -0.00109878 1.66803e-07 2.24015e-07 3.70251e-07 0.0005 1.46608e-07 
30 1 0.0199473 0.022964 0.0151558 0.0280811 2.80133e-06 -0.00600176 0 0 -1.43822e-06 0.0005 1.46608e-07 
32 1 0.0217316 0.0212704 0.0155882 0.00565163 0.00049561 -0.000787724 -7.61807e-06 6.85047e-06 -7.97383e-07 0.0005 1.46608e-07 
33 1 0.0339464 0.0162011 0.0147319 0.00038989 0.0185598 0.0167251 -6.50412e-09 1.9085e-08 3.87891e-10 0.0005 1.46608e-07 
38 1 0.154353 0.0180393 0.00580707 9.22792e-15 -2.32623e-14 1.89554e-13 4.46942e-20 6.55127e-20 6.77626e-21 0.0005 1.46608e-07 
40 1 0.0182823 0.0141998 0.0147682 0.000270155 0.000464796 0.000551114 -1.5109e-07 -2.37301e-08 3.04257e-07 0.0005 1.46608e-07 
41 1 0.0210073 0.0220045 0.0160484 0.0202846 0.0191122 0.0146158 0 0 -1.43822e-06 0.0005 1.46608e-07 
43 1 0.0206466 0.0237709 0.0122884 0.00684615 -0.0070412 -0.00742565 4.41741e-05 -1.5081e-05 3.12033e-05 0.0005 1.46608e-07 
44 1 0.0182547 0.024092 0.0127468 -0.00059605 0.00313817 -0.00112348 -1.18183e-08 -1.52206e-08 7.09942e-08 0.0005 1.46608e-07 
45 1 0.0343992 0.0149882 0.0128517 0.000514456 0.0080987 0.0221377 -3.43785e-09 1.96807e-08 7.88135e-09 0.0005 1.46608e-07 
47 1 0.0302647 0.0193159 0.00720623 8.79779e-05 -0.0257882 -0.00289675 3.05514e-10 -5.56784e-09 1.468e-08 0.0005 1.46608e-07 
48 1 0.0173067 0.0229867 0.014965 -0.00290552 0.00423993 -0.00208464 5.63025e-07 3.08175e-06 -5.17256e-06 0.0005 1.46608e-07 
50 1 0.0241181 0.0176993 0.0165595 -0.00402585 0.00381092 0.00382429 0 0 -1.43822e-06 0.0005 1.46608e-07 
53 1 0.0354633 0.0159189 0.00854542 0.000468394 -0.0156942 0.017484 -6.2711e-09 -1.92536e-09 2.31135e-08 0.0005 1.46608e-07 
54 1 0.0329743 0.0200904 0.0155944 0.0009418 0.0202391 -0.00678398 -1.56272e-08 3.04062e-07 9.64504e-08 0.0005 1.46608e-07 
55 1 0.0190814 0.0147544 0.0145339 -0.000124251 0.00117565 -0.00330732 -2.81719e-07 2.71209e-07 -1.53083e-07 0.0005 1.46608e-07 
58 1 0.0214369 0.0221583 0.0148476 0.00852573 -0.000183026 -0.00819722 -3.38905e-06 4.5986e-06 1.76503e-05 0.0005 1.46608e-07 
59 1 0.0341514 0.015446 0.0138352 4.33009e-05 0.0132061 0.0224067 -1.65101e-09 1.56741e-08 -2.26864e-09 0.0005 1.46608e-07 
61 1 0.0309616 0.0220828 0.00841175 0.000376447 -0.0169899 -0.0176439 -1.48494e-07 2.8831e-07 6.65735e-07 0.0005 1.46608e-07 
62 1 0.0622592 0.0198219 0.00579643 -5.05302e-15 -6.78191e-14 1.88015e-13 1.2409e-19 -6.08805e-20 -1.86347e-20 0.0005 1.46608e-07 
63 1 0.0281375 0.0154535 0.0137517 0.00118035 0.0128121 0.0221016 1.12181e-08 9.1348e-09 1.06761e-08 0.0005 1.46608e-07 
66 1 0.0234438 0.0231786 0.0155193 0.000542901 0.000281493 5.28749e-05 -3.60923e-06 7.44283e-07 -3.35642e-07 0.0005 1.46608e-07 
67 1 0.0300259 0.0181091 0.00729247 0.000437522 -0.0236833 0.00556277 -1.70139e-09 -4.62711e-09 1.564e-08 0.0005 1.46608e-07 
74 1 0.0202409 0.023138 0.0141207 0.00324891 0.0045779 -0.00472168 8.65601e-06 3.40968e-06 -7.5553e-06 0.0005 1.46608e-07 
75 1 0.024139 0.0224643 0.0154883 0.000297063 0.000607048 0.000855896 8.83931e-08 -2.73619e-07 -6.62255e-07 0.0005 1.46608e-07 
76 1 0.0226643 0.0214561 0.0153452 0.00610205 -0.00130252 0.00170343 -3.46177e-06 2.29623e-06 -1.18493e-06 0.0005 1.46608e-07 
77 1 0.0297687 0.0171178 0.00765578 0.000441803 -0.0206391 0.00941403 4.33298e-08 -4.40082e-08 2.21013e-07 0.0005 1.46608e-07 
78 1 0.0157361 0.0214814 0.0152244 0.003017 0.0139535 -0.0098587 1.02353e-07 -3.18228e-07 1.39442e-07 0.0005 1.46608e-07 
79 1 0.0177532 0.0243711 0.0138822 0.000304406 0.000167012 -0.000399036 2.37593e-06 -9.99808e-08 -8.57909e-07 0.0005 1.46608e-07 
80 1 0.0209733 0.0242293 0.0140596 -0.000773721 0.00126601 -0.00253018 1.95196e-05 -5.75586e-06 1.20673e-05 0.0005 1.46608e-07 
82 1 0.0307614 0.0212718 0.00777226 0.00117583 -0.0167219 -0.00911856 -1.74834e-07 1.48099e-06 -1.33585e-07 0.0005 1.46608e-07 
83 1 0.0176337 0.0238976 0.0147545 0.000208838 0.00117356 6.06651e-05 1.21099e-06 1.67265e-06 -1.67575e-06 0.0005 1.46608e-07 
85 1 0.0359021 0.0176552 0.00740828 0.00136234 -0.020838 0.00804338 -1.56085e-08 -2.32788e-08 2.18454e-08 0.0005 1.46608e-07 
86 1 0.0162345 0.0153168 0.0139284 0.00560759 0.00378327 0.000349468 1.55997e-07 2.57011e-08 -5.12255e-07 0.0005 1.46608e-07 
88 1 0.0164517 0.014883 0.0130539 0.00542375 0.00162652 0.00154622 -8.02419e-08 -5.6516e-08 -2.18456e-07 0.0005 1.46608e-07 
92 1 0.0238108 0.0216222 0.0161101 0.00319124 0.00156608 0.000678099 4.44388e-06 5.5062e-06 -1.07559e-06 0.0005 1.46608e-07 
93 1 0.0257508 0.0202301 0.0166241 -0.000286656 -0.00185006 -0.00112799 5.98296e-07 -5.0174e-07 -2.27937e-07 0.0005 1.46608e-07 
95 1 0.0273557 0.0183456 0.0157723 0.00147479 0.0200471 0.00622163 -5.23064e-07 4.93413e-07 -6.60408e-08 0.0005 1.46608e-07 
99 1 0.0158341 0.0235707 0.0143019 0.000379815 -0.00049059 -0.0012526 1.14789e-06 1.77796e-06 -3.15361e-06 0.0005 1.46608e-07 
101 1 0.0278721 0.0164864 0.0148978 0.00054214 0.0195656 0.0139504 -5.67389e-09 1.55094e-08 -7.75891e-09 0.0005 1.46608e-07 
102 1 0.019736 0.0219816 0.00832247 0.000107335 -0.0148957 -0.0163492 8.49984e-10 -7.99259e-09 1.17159e-08 0.0005 1.46608e-07 
103 1 0.0147529 0.0213928 0.0152889 0.00413941 0.00475526 -0.00867097 1.20596e-07 7.62154e-07 -2.98237e-07 0.0005 1.46608e-07 
104 1 0.0169726 0.0157341 0.0144584 0.00425849 0.0033339 0.00278202 6.41595e-08 -1.46834e-07 -1.09467e-08 0.0005 1.46608e-07 
105 1 0.0144467 0.0225914 0.0144631 0.00167366 0.00631709 -0.0190665 -4.20487e-07 -8.58541e-07 -2.82069e-07 0.0005 1.46608e-07 
106 1 0.0319629 0.0232282 0.012657 0.000651808 0.00700179 -0.0225827 -2.15794e-08 2.41053e-08 -1.44136e-07 0.0005 1.46608e-07 
108 1 0.0218068 0.0238838 0.0137299 0.000302257 -0.000265145 -0.000825601 1.32751e-05 -3.16005e-06 -5.22816e-06 0.0005 1.46608e-07 
109 1 0.0225938 0.0235717 0.0140149 -0.000181583 -0.000377735 0.000204668 3.8876e-06 -1.84345e-07 -2.64505e-06 0.0005 1.46608e-07 
111 1 0.0203832 0.0238701 0.0147803 0.00013051 0.000931682 -0.00118762 2.04936e-06 5.81985e-06 1.96035e-06 0.0005 1.46608e-07 
112 1 0.00197664 0.0139506 0.0435188 -9.69236e-317 -9.6912e-317 3.10717e-12 0 0 0 0.0005 1.46608e-07 
113 1 0.0215296 0.023135 0.0131975 0.00194722 0.00169236 -0.00170219 1.82867e-05 4.18943e-06 -1.40956e-05 0.0005 1.46608e-07 
114 1 0.018335 0.0151869 0.0150394 0.0011913 0.00171942 -0.00224966 -2.97621e-07 7.2014e-08 -2.37067e-07 0.0005 1.46608e-07 
116 1 0.0192617 0.0241061 0.0125727 -0.000429321 0.00017474 -0.000421273 -1.96928e-06 -7.31711e-07 2.7562e-06 0.0005 1.46608e-07 
119 1 0.0196682 0.0189052 0.0167604 -1.1649e-08 0.0290894 0.000878287 -6.24649e-13 7.96484e-10 -2.33106e-08 0.0005 1.46608e-07 
123 1 0.0910328 0.0189119 0.00581756 -1.02285e-14 1.48871e-14 1.99444e-13 -2.24993e-22 -2.017e-20 1.48231e-21 0.0005 1.46608e-07 
124 1 0.0211378 0.0197453 0.0159192 0.00494144 0.00115047 0.00225551 1.06606e-06 -7.81343e-06 1.67331e-06 0.0005 1.46608e-07 
125 1 0.0206785 0.0235039 0.0135169 0.00218175 0.00217799 -0.00227298 1.44341e-05 1.40224e-06 1.42597e-05 0.0005 1.46608e-07 
127 1 0.0209727 0.0141065 0.0133312 0.000646432 -0.000407659 0.00143758 2.71963e-07 -5.87529e-08 6.91618e-08 0.0005 1.46608e-07 
128 1 0.0258939 0.0233014 0.0123559 0.00154554 0.00379437 -0.022478 -3.30945e-08 2.20075e-09 -5.64424e-08 0.0005 1.46608e-07 
129 1 0.0194197 0.0237171 0.0139662 0.000983443 -0.000638667 -0.00452404 5.51474e-07 -1.24423e-07 -3.42315e-07 0.0005 1.46608e-07 
134 1 0.0230339 0.0153441 0.0139811 0.00440509 0.00178373 0.00209296 -1.99882e-06 -3.54614e-07 9.39132e-07 0.0005 1.46608e-07 
135 1 0.0799952 0.0188016 0.0058611 1.51992e-14 5.18366e-14 2.19703e-13 5.19297e-19 -1.32931e-19 -5.50571e-21 0.0005 1.46608e-07 
136 1 0.0187682 0.0244311 0.0137101 -0.000437297 -0.000425691 -0.00022624 1.41072e-07 -2.62561e-07 1.12535e-07 0.0005 1.46608e-07 
137 1 0.0194182 0.0200221 0.0166644 -5.33218e-10 0.0285616 -0.00531893 -1.40839e-15 -4.21482e-09 -2.2891e-08 0.0005 1.46608e-07 
138 1 0.0231521 0.0147426 0.014771 0.000641214 -0.000220778 0.000801764 4.70111e-07 2.90494e-08 5.42448e-07 0.0005 1.46608e-07 
141 1 0.0602248 0.0188345 0.00590648 6.06078e-15 2.71965e-14 1.94808e-13 1.31687e-20 6.8292e-21 -1.27055e-21 0.0005 1.46608e-07 
143 1 0.020717 0.0233902 0.016075 -0.0132735 0.0446591 -0.00263666 0 0 -1.43822e-06 0.0005 1.46608e-07 
144 1 0.0200196 0.0241308 0.0161797 -0.0311322 -0.0137315 -0.00423506 0 0 -1.43822e-06 0.0005 1.46608e-07 
145 1 0.0333699 0.0182045 0.0156984 -0.000250577 0.0223201 0.00540342 -1.04941e-08 -2.40166e-08 -2.84123e-08 0.0005 1.46608e-07 
150 1 0.0190321 0.023218 0.0147541 0.0101448 0.007151 -0.00915684 9.45229e-08 -3.45476e-07 2.30478e-07 0.0005 1.46608e-07 
152 1 0.021874 0.01649 0.0151424 0.00831948 -0.0103935 -0.0104211 3.43091e-08 -1.86458e-07 -8.39804e-08 0.0005 1.46608e-07 
155 1 0.0292895 0.0154587 0.00907057 0.00276187 -0.00938207 0.012163 -1.54808e-08 -1.47142e-08 8.03909e-08 0.0005 1.46608e-07 
158 1 0.0229427 0.0202544 0.0157756 0.00534009 0.00232926 0.00079497 1.80441e-06 -8.15255e-06 -5.97773e-07 0.0005 1.46608e-07 
159 1 0.0231749 0.022243 0.0156519 0.00344267 0.000624894 0.000139202 2.34389e-06 -7.48693e-07 4.52813e-08 0.0005 1.46608e-07 
162 1 0.0182321 0.0143117 0.0137759 -0.00029856 -0.00118379 0.000229929 1.07264e-07 3.89019e-07 5.38347e-08 0.0005 1.46608e-07 
164 1 0.0182529 0.0227655 0.0152069 0.00173587 0.00119029 -0.00279554 0 0 -1.43822e-06 0.0005 1.46608e-07 
166 1 0.0170457 0.0146635 0.0122799 -0.000479985 0.00131466 -0.00154356 -1.17748e-07 2.11094e-07 -2.56487e-07 0.0005 1.46608e-07 
170 1 0.0200199 0.0145715 0.0142412 0.000200588 0.000636501 -0.00113252 -2.3634e-07 -3.41278e-08 2.1815e-07 0.0005 1.46608e-07 
171 1 0.0227968 0.0230806 0.014814 0.000495464 -0.00065883 0.000221077 -4.13236e-06 8.36151e-08 -4.93663e-07 0.0005 1.46608e-07 
172 1 0.0192576 0.0228424 0.00959306 0.000338847 -0.011246 -0.0218668 -2.92332e-09 -1.62229e-08 -1.28761e-11 0.0005 1.46608e-07 
176 1 0.0160203 0.015934 0.0146886 0.0046607 0.00521669 0.00315877 7.04225e-08 2.13982e-08 -2.91263e-07 0.0005 1.46608e-07 
177 1 0.0283935 0.0150316 0.0128401 -0.000100463 0.00672342 0.0200029 -4.71988e-09 1.78971e-08 -1.72615e-09 0.0005 1.46608e-07 
178 1 0.0210886 0.0227339 0.0139676 0.00286572 0.00185168 -0.00181005 1.04783e-05 3.63409e-06 -2.03879e-06 0.0005 1.46608e-07 
180 1 0.0240165 0.0180558 0.00732517 0.000166825 -0.02501 0.00510108 -1.01588e-09 -2.59247e-09 1.57054e-08 0.0005 1.46608e-07 
181 1 0.0224102 0.0221848 0.014719 0.0102097 -0.00518352 -0.00415249 -1.03739e-05 1.1941e-06 -5.91984e-06 0.0005 1.46608e-07 
182 1 0.0228642 0.0160758 0.0148046 0.0103351 -0.00219101 -0.000310955 -1.90931e-07 -3.07668e-07 -2.35585e-07 0.0005 1.46608e-07 
187 1 0.0173694 0.0143731 0.0142776 -9.2374e-06 -0.000276056 0.000301027 1.26798e-07 5.99613e-09 1.44424e-07 0.0005 1.46608e-07 
190 1 0.0219034 0.0230429 0.0152815 -0.00134717 0.000107013 -0.00826751 0 0 -1.43822e-06 0.0005 1.46608e-07 
191 1 0.0288764 0.0148061 0.0107655 0.000272234 -0.00692567 0.0246353 3.58704e-09 1.1255e-08 4.53763e-09 0.0005 1.46608e-07 
195 1 0.0171921 0.015149 0.0136711 0.00558906 0.00252374 0.000553403 -5.33827e-07 -1.07807e-07 -4.68034e-07 0.0005 1.46608e-07 
197 1 0.0935581 0.0183371 0.00588747 1.05946e-14 1.89685e-14 2.48643e-13 -2.48684e-20 6.86891e-21 4.23516e-22 0.0005 1.46608e-07 
199 1 0.0150406 0.0233211 0.0148536 0.000358272 -9.37582e-05 -0.000721104 1.6839e-06 2.99987e-06 2.12407e-06 0.0005 1.46608e-07 
204 1 0.118145 0.0201427 0.00585321 -1.08487e-15 -1.75125e-14 8.4019e-14 1.23217e-20 2.69992e-21 6.35275e-22 0.0005 1.46608e-07 
205 1 0.0305313 0.0204627 0.00745405 0.000561947 -0.0217409 -0.00661629 5.70267e-07 1.07153e-07 2.85677e-07 0.0005 1.46608e-07 
209 1 0.0191609 0.0139675 0.0139124 -9.3163e-05 -0.000872081 0.000579656 -1.08939e-07 1.02108e-07 1.34159e-07 0.0005 1.46608e-07 
212 1 0.0266628 0.0213004 0.0151144 0.00271141 0.0151892 -0.0114683 -1.83002e-05 1.11003e-05 3.88359e-06 0.0005 1.46608e-07 
213 1 0.0138803 0.022291 0.0156627 0.000378316 0.000638115 -0.00044116 2.94793e-08 1.04655e-06 -5.2358e-07 0.0005 1.46608e-07 
219 1 0.020544 0.0150507 0.0149453 -0.00117751 -0.00147944 0.00153737 -7.51352e-08 -2.1405e-07 -3.34681e-08 0.0005 1.46608e-07 
221 1 0.0276423 0.0172273 0.0153543 0.000157502 0.0229336 0.0119716 -1.91714e-09 1.23655e-08 -1.10628e-08 0.0005 1.46608e-07 
224 1 0.0204661 0.0223035 0.0145012 0.00266443 0.00655 -0.00498051 -2.21488e-06 8.17678e-06 -8.49929e-06 0.0005 1.46608e-07 
225 1 0.021019 0.0145305 0.0142356 0.000185077 -0.000334196 0.00143846 6.46582e-08 -2.99046e-08 -5.96278e-08 0.0005 1.46608e-07 
226 1 0.0312803 0.0229482 0.00959181 0.00057577 -0.0110054 -0.0208449 4.7895e-09 -6.33567e-08 -1.33111e-07 0.0005 1.46608e-07 
227 1 0.0197343 0.0234363 0.0115312 0.00100327 -0.0021805 -0.0164477 -2.44573e-07 -2.81156e-07 -3.46005e-06 0.0005 1.46608e-07 
229 1 0.032459 0.022168 0.014495 0.00130957 0.0155164 -0.0132905 6.36413e-09 -3.34982e-08 4.70476e-09 0.0005 1.46608e-07 
230 1 0.0189126 0.0218395 0.00823892 0.000147436 -0.0170704 -0.0186529 -6.60763e-09 -1.38026e-08 1.05697e-08 0.0005 1.46608e-07 
233 1 0.0237723 0.015769 0.0145048 0.00442588 0.00537933 0.000982952 -4.21083e-07 7.96782e-08 -1.32296e-06 0.0005 1.46608e-07 
234 1 0.0187231 0.0211157 0.007735 0.000200579 -0.0214888 -0.0108334 -1.80018e-09 -1.46425e-08 8.96919e-09 0.0005 1.46608e-07 
235 1 0.0291561 0.0151864 0.00973838 0.002233 -0.00624524 0.0190337 -1.06916e-08 -1.0034e-09 2.66288e-08 0.0005 1.46608e-07 
242 1 0.0201088 0.0137467 0.0136831 9.30836e-05 -8.24535e-06 7.76797e-05 1.44156e-08 2.34257e-07 -2.61428e-07 0.0005 1.46608e-07 
244 1 0.024511 0.0158659 0.0156565 0.00134851 0.00191975 0.000194284 -3.76618e-07 -2.52366e-07 -4.65603e-08 0.0005 1.46608e-07 
249 1 0.015179 0.0228489 0.0138328 0.0127685 0.00606007 -0.00897109 -1.39325e-06 -2.03827e-06 7.77673e-06 0.0005 1.46608e-07 
250 1 0.0294753 0.0159832 0.0084694 0.000810385 -0.0146765 0.0145943 -2.07591e-08 -1.52416e-09 8.76553e-09 0.0005 1.46608e-07 
252 1 0.0178731 0.0160331 0.014774 0.00245834 0.00508296 0.0065455 -9.28284e-08 2.20843e-07 1.97081e-07 0.0005 1.46608e-07 
253 1 0.0164277 0.0222846 0.0145713 0.000725859 0.0165069 -0.0171109 -2.13551e-07 5.94087e-07 -7.21466e-07 0.0005 1.46608e-07 
255 1 0.0206158 0.0234355 0.0113625 0.000160839 0.000501208 -0.0110793 -3.58257e-07 -5.01248e-07 5.17819e-06 0.0005 1.46608e-07 
256 1 0.0160677 0.0231835 0.0131739 0.00418123 -0.00032144 -0.00336201 6.65434e-07 2.18176e-06 1.77749e-06 0.0005 1.46608e-07 
257 1 0.0179346 0.0141938 0.0128285 -0.000158618 -0.00143502 -8.57116e-06 -2.72342e-07 -1.43769e-08 1.40292e-08 0.0005 1.46608e-07 
260 1 0.0206925 0.0216044 0.0151635 0.00555194 0.00509577 -0.00519268 1.43288e-06 -2.97276e-06 -3.73912e-06 0.0005 1.46608e-07 
261 1 0.0178082 0.0145497 0.0156019 -5.4543e-05 0.00167866 -0.00358133 7.27864e-08 6.33424e-08 -3.78859e-07 0.0005 1.46608e-07 
265 1 0.0279641 0.0158326 0.0143712 0.0026921 0.0134053 0.0174025 -4.58777e-08 3.11981e-08 -3.06706e-08 0.0005 1.46608e-07 
266 1 0.0256993 0.023392 0.011259 7.93456e-05 -5.93552e-05 -0.0257248 -5.02588e-09 -2.33148e-08 -4.0206e-08 0.0005 1.46608e-07 
267 1 0.0214302 0.0234087 0.01448 0.000968811 0.000455695 -0.000122217 1.36667e-05 9.70776e-06 1.18269e-06 0.0005 1.46608e-07 
268 1 0.0166479 0.0217348 0.0155183 0.000758291 0.0250729 -0.013199 -1.2037e-07 9.31897e-07 -6.24205e-07 0.0005 1.46608e-07 
270 1 0.01719 0.0203063 0.0279688 0.0126129 -0.0348051 -0.185956 0 0 -1.43822e-06 0.0005 1.46608e-07 
271 1 0.0300831 0.015558 0.00899136 0.0026544 -0.0104744 0.0135672 5.30879e-07 1.61993e-08 -1.93733e-08 0.0005 1.46608e-07 
275 1 0.0194633 0.0140062 0.0129601 0.000231513 -0.000448829 0.000680245 5.91651e-08 1.96167e-08 1.5379e-07 0.0005 1.46608e-07 
278 1 0.0238646 0.0151807 0.0153193 -0.00019283 0.000847761 -0.00119141 -3.88212e-07 1.38715e-07 -9.32611e-07 0.0005 1.46608e-07 
281 1 0.0179812 0.0146274 0.0119287 0.000167418 -0.000256361 0.000464964 -5.09824e-09 -9.30079e-09 -9.67735e-08 0.0005 1.46608e-07 
283 1 0.019535 0.0232828 0.0105256 0.00696467 0.00382929 7.96475e-05 -1.72012e-06 1.94169e-07 -7.20186e-07 0.0005 1.46608e-07 
284 1 0.0774097 0.0197225 0.00576285 1.47296e-15 -2.14038e-14 7.90683e-14 -3.29211e-19 6.79744e-20 2.37169e-20 0.0005 1.46608e-07 
285 1 0.0236898 0.0165168 0.0151661 0.00694232 0.00804629 0.00403928 -2.69446e-07 -3.70415e-07 7.25437e-08 0.0005 1.46608e-07 
287 1 0.0221587 0.0238999 0.0147515 2.15392e-05 7.45389e-05 0.000259287 6.95497e-06 2.94185e-07 2.2446e-06 0.0005 1.46608e-07 
288 1 0.0247788 0.0218304 0.0159716 0.000706127 -0.00102872 -0.00126865 3.28395e-06 1.74428e-06 -2.47858e-06 0.0005 1.46608e-07 
290 1 0.0209062 0.0207492 0.0156184 0.00355986 0.00620664 -0.00390437 3.66105e-06 -1.15003e-05 5.33412e-06 0.0005 1.46608e-07 
291 1 0.0181897 0.0159122 0.0157148 0.00572019 -0.00632655 0.00401053 -9.05567e-08 -2.00405e-07 -3.56052e-08 0.0005 1.46608e-07 
294 1 0.0227919 0.0171078 0.00655212 2.64831e-14 -5.64318e-14 -2.04448e-13 2.2764e-21 1.05879e-21 -2.11758e-22 0.0005 1.46608e-07 
295 1 0.0234976 0.016085 0.00834814 0.000484444 -0.0152108 0.0137651 -6.70507e-09 1.01233e-07 -1.25247e-08 0.0005 1.46608e-07 
296 1 0.0181352 0.0153294 0.0139502 0.00466323 0.0038605 0.00342252 8.25962e-07 5.84058e-08 -1.65738e-06 0.0005 1.46608e-07 
297 1 0.0317705 0.0233675 0.0117093 0.0002629 0.00127852 -0.0244696 -6.78438e-09 -8.30577e-09 -3.84566e-08 0.0005 1.46608e-07 
298 1 0.0226311 0.0227731 0.0163342 0.00127817 -0.000358647 0.000885632 4.82272e-07 -1.29437e-07 -1.49658e-06 0.0005 1.46608e-07 
300 1 0.0250751 0.0165508 0.0161244 0.00133925 0.00161094 0.000835198 -4.55616e-08 -5.09593e-08 6.88549e-08 0.0005 1.46608e-07 
301 1 0.0286794 0.0147899 0.0117092 0.000988293 0.00233674 0.0222541 -1.48149e-08 2.05938e-08 2.75547e-08 0.0005 1.46608e-07 
303 1 0.0261294 0.022934 0.0133023 -0.000216606 0.0136786 -0.0223851 6.44993e-09 -1.13408e-08 -1.12803e-08 0.0005 1.46608e-07 
304 1 0.0232857 0.0153909 0.00916204 0.000472478 -0.0135603 0.0206011 6.43505e-10 9.33913e-09 1.06622e-08 0.0005 1.46608e-07 
307 1 0.0219794 0.0143849 0.013998 4.02352e-05 -0.000380443 0.000576378 7.72927e-08 1.49041e-07 1.50955e-07 0.0005 1.46608e-07 
312 1 0.0172331 0.0240318 0.0131008 0.000230341 0.00277667 -0.00189193 -3.27897e-07 -1.67635e-08 4.73127e-07 0.0005 1.46608e-07 
314 1 0.0143471 0.0231686 0.0155544 0.000380399 0.00114376 -0.000573109 -4.02024e-07 -2.92446e-07 6.50802e-08 0.0005 1.46608e-07 
315 1 0.00842114 0.0323835 0.0435188 -9.72922e-317 -9.70169e-317 -1.69736e-12 0 0 0 0.0005 1.46608e-07 
316 1 0.0322718 0.0227114 0.0137285 0.0003673 0.0124883 -0.0205332 -6.21372e-10 -7.95841e-09 -1.10288e-08 0.0005 1.46608e-07 
317 1 0.0253574 0.0211068 0.0163476 0.000712298 -0.00163538 -0.000754459 -8.59931e-07 4.72158e-08 -1.08798e-06 0.0005 1.46608e-07 
318 1 0.0220907 0.0221783 0.0157547 7.75562e-05 0.000796822 0.0029423 -3.60951e-06 6.6169e-06 -5.62182e-06 0.0005 1.46608e-07 
320 1 0.0816322 0.0177621 0.00599233 1.53285e-14 5.18544e-14 2.1969e-13 2.56757e-21 -2.85874e-21 4.23516e-22 0.0005 1.46608e-07 
322 1 0.0388763 0.0190285 0.00572726 1.54922e-15 -7.41605e-15 3.66661e-14 3.87121e-21 1.85288e-21 -2.11758e-22 0.0005 1.46608e-07 
325 1 0.0191507 0.0224666 0.0155326 0.00316217 -0.00158262 -0.00227725 0 0 -1.43822e-06 0.0005 1.46608e-07 
326 1 0.0165259 0.0141915 0.0137723 0.000218332 -0.000298416 0.000120684 -1.19257e-07 -1.49909e-07 6.21309e-08 0.0005 1.46608e-07 
328 1 0.0169921 0.0164851 0.0151351 0.00019128 -0.00971427 -0.00897911 -2.64517e-09 -2.55384e-07 -1.36627e-07 0.0005 1.46608e-07 
329 1 0.0483695 0.0188487 0.00601991 -8.37042e-15 1.8681e-14 1.92616e-13 -5.32387e-19 -2.55963e-19 4.23516e-22 0.0005 1.46608e-07 
331 1 0.020114 0.0229278 0.00967844 0.000240537 -0.0107791 -0.0216789 -2.3724e-09 -1.56521e-08 -7.43473e-10 0.0005 1.46608e-07 
333 1 0.0268757 0.0205952 0.0155453 0.00365953 0.0184551 -0.00650572 -1.29448e-05 -8.69593e-06 3.06157e-06 0.0005 1.46608e-07 
334 1 0.0166368 0.0237203 0.0148763 -0.00172262 0.00489169 -0.00067973 6.99672e-07 1.05651e-07 -7.62994e-06 0.0005 1.46608e-07 
335 1 0.0221281 0.0156101 0.0143119 0.00558099 0.00122096 0.00145394 1.62022e-07 -3.08143e-07 -3.22662e-07 0.0005 1.46608e-07 
337 1 0.0199738 0.0244213 0.0135222 -0.00110385 -0.00304104 -0.00781259 -9.49842e-08 -3.71224e-07 -9.9942e-07 0.0005 1.46608e-07 
338 1 0.016655 0.0239897 0.0139151 0.00117966 1.21558e-05 -0.0015173 3.37945e-07 3.59862e-06 -2.53921e-06 0.0005 1.46608e-07 
340 1 0.0271187 0.0196947 0.015772 0.000565907 0.0236756 -0.00310627 1.02704e-05 6.27158e-06 -1.03183e-05 0.0005 1.46608e-07 
