ITEM: TIMESTEP
15000000
ITEM: NUMBER OF ATOMS
133
ITEM: BOX BOUNDS ff ff ff
-0.02 0.43
-0.02 0.06
-0.02 0.07
ITEM: ATOMS id type x y z vx vy vz fx fy fz radius mass 
1 1 0.0316118 0.0216436 0.014917 0.000706774 0.0206778 -0.0132797 3.49548e-09 -1.20682e-08 -1.26478e-09 0.0005 1.46608e-07 
8 1 0.0417354 0.0213793 0.00788241 0.00022303 -0.0208921 -0.0141056 -1.68949e-09 -1.23115e-08 9.04227e-09 0.0005 1.46608e-07 
9 1 0.0228726 0.016125 0.014849 4.26534e-05 0.0202313 0.0177234 -5.53557e-09 -2.26563e-08 -1.69483e-07 0.0005 1.46608e-07 
11 1 0.0469582 0.0173732 0.0061601 4.5065e-15 2.51184e-14 1.72927e-13 1.29636e-20 -2.03817e-21 -2.11758e-22 0.0005 1.46608e-07 
14 1 0.040108 0.0151853 0.00969363 -0.00012694 -0.0131889 0.0231058 -2.13955e-09 1.11344e-08 8.46775e-09 0.0005 1.46608e-07 
15 1 0.0411143 0.0187066 0.00716937 0.00115203 -0.0203347 0.00152637 -4.91374e-09 -1.66565e-08 1.89537e-08 0.0005 1.46608e-07 
16 1 0.0255997 0.0215935 0.0148845 0.000680888 0.0167864 -0.0141345 -5.679e-09 5.56537e-08 -2.40899e-08 0.0005 1.46608e-07 
18 1 0.0395804 0.0148314 0.0119988 -3.74914e-06 0.00185791 0.0255929 -1.43844e-09 1.57324e-08 2.58221e-09 0.0005 1.46608e-07 
19 1 0.0302785 0.0229404 0.00954282 0.000400813 -0.00980701 -0.0216224 2.945e-08 7.72725e-08 4.02984e-07 0.0005 1.46608e-07 
21 1 0.0280935 0.0151641 0.00971858 0.000165856 -0.0104559 0.0225396 -6.53812e-10 1.03465e-08 1.19498e-08 0.0005 1.46608e-07 
22 1 0.0236238 0.0229005 0.0150932 -0.00323701 0.0035443 -0.00298497 6.74072e-06 -6.55662e-06 2.06264e-06 0.0005 1.46608e-07 
23 1 0.0592125 0.017612 0.00598053 -5.61035e-15 1.15681e-14 1.42546e-13 7.37845e-20 1.13026e-20 2.5411e-21 0.0005 1.46608e-07 
26 1 0.0188287 0.0232959 0.0107321 0.000196039 0.00217246 -0.00493731 -2.66004e-10 1.03352e-07 1.98153e-07 0.0005 1.46608e-07 
32 1 0.0227426 0.0147089 0.0142468 0.0285989 0.0168468 -0.010392 5.02873e-08 -2.32367e-08 -1.00667e-06 0.0005 1.46608e-07 
33 1 0.0422287 0.0227648 0.00937488 0.000354277 -0.0112681 -0.0221054 -1.58035e-09 -1.24335e-08 1.61024e-08 0.0005 1.46608e-07 
38 1 0.154353 0.0180393 0.00580707 8.91197e-15 -2.34056e-14 1.89551e-13 -7.78542e-19 -5.15843e-19 -2.79521e-20 0.0005 1.46608e-07 
40 1 0.0207282 0.0212896 0.0153959 -0.000643296 0.024624 -0.0147107 -2.68388e-08 1.57009e-07 5.23503e-09 0.0005 1.46608e-07 
41 1 0.0258233 0.0224378 0.0139987 7.87147e-06 0.016555 -0.019842 4.08897e-10 -9.61611e-09 -8.83395e-09 0.0005 1.46608e-07 
44 1 0.0213865 0.0242279 0.0139757 -0.00327599 0.00114582 -8.64761e-05 -1.90355e-06 6.68037e-07 -1.19039e-06 0.0005 1.46608e-07 
45 1 0.0426985 0.0234011 0.0114187 0.00255089 0.00144085 -0.00895465 4.62762e-05 5.80531e-06 1.45415e-05 0.0005 1.46608e-07 
47 1 0.0380892 0.0195092 0.0157435 0.000468801 0.00395603 0.00523106 8.50484e-05 5.04758e-05 -5.60571e-05 0.0005 1.46608e-07 
48 1 0.0211526 0.0153056 0.0142956 3.55537e-05 0.0164782 0.0231854 -2.87706e-08 -5.23495e-08 6.05389e-08 0.0005 1.46608e-07 
50 1 0.0320723 0.0197306 0.0157375 -0.000274015 0.0165394 -0.00436333 -9.78598e-12 8.1721e-09 -1.39012e-08 0.0005 1.46608e-07 
53 1 0.0430552 0.0230757 0.0130493 0.000258276 0.00800046 -0.0225398 -3.2198e-09 -9.19803e-09 -1.44534e-08 0.0005 1.46608e-07 
54 1 0.0414006 0.0197513 0.00723005 0.000581475 -0.0229336 -0.00368231 1.18855e-07 -1.82675e-07 2.19869e-07 0.0005 1.46608e-07 
55 1 0.0142779 0.022455 0.0143629 0.0049734 0.0018403 -0.00319861 1.44077e-08 -2.19528e-07 2.95838e-07 0.0005 1.46608e-07 
59 1 0.0424578 0.0232624 0.0106138 0.00395426 -0.000400006 -0.00422998 3.48467e-05 -6.05385e-06 4.6298e-05 0.0005 1.46608e-07 
61 1 0.0390523 0.0157661 0.0142195 0.000230804 0.0159649 0.0191676 -1.07419e-09 1.59737e-08 -3.92078e-09 0.0005 1.46608e-07 
62 1 0.0622592 0.0198219 0.00579643 -4.70771e-15 -6.78171e-14 1.88025e-13 5.79873e-19 5.29396e-23 1.56701e-20 0.0005 1.46608e-07 
63 1 0.0353638 0.0197294 0.00739192 3.95322e-05 -0.0253288 -0.00492014 3.58242e-11 -6.65323e-09 1.42299e-08 0.0005 1.46608e-07 
67 1 0.0379556 0.0200581 0.0156932 0.00170678 0.00655088 0.00172233 0.000125918 -3.00878e-06 -6.234e-06 0.0005 1.46608e-07 
77 1 0.0371569 0.0228321 0.0135847 0.000674728 0.00746672 -0.01108 -4.92012e-09 -8.1355e-09 -2.60069e-08 0.0005 1.46608e-07 
80 1 0.0283352 0.01569 0.00880435 0.00565632 -0.0010884 -0.00222371 1.03409e-08 1.70134e-07 -1.01883e-07 0.0005 1.46608e-07 
82 1 0.0386349 0.0171406 0.0153394 0.000979518 0.0205194 0.00909546 -8.85915e-09 2.59709e-08 -4.60587e-09 0.0005 1.46608e-07 
83 1 0.0211111 0.0230586 0.0134532 0.00589111 0.00685572 -0.0113635 -1.25883e-07 5.67261e-07 -1.462e-06 0.0005 1.46608e-07 
85 1 0.0433493 0.0223966 0.0142067 0.000361578 0.0176536 -0.0195063 -9.62365e-09 -6.35633e-09 -1.54921e-08 0.0005 1.46608e-07 
88 1 0.0215175 0.0147579 0.0126681 0.00465139 0.00247336 0.00691742 -1.82954e-08 3.88566e-08 -3.24007e-07 0.0005 1.46608e-07 
93 1 0.030476 0.0232945 0.010494 0.00195276 -0.00313246 -0.0177118 -2.09053e-08 -5.14196e-08 4.98605e-08 0.0005 1.46608e-07 
95 1 0.0339295 0.0149485 0.010647 0.00400347 -0.00151155 0.0138553 4.50192e-07 -2.57475e-07 2.21051e-05 0.0005 1.46608e-07 
99 1 0.022993 0.0236697 0.0149948 -0.00130651 0.00102435 -0.00239193 -4.64474e-07 2.57851e-06 1.03103e-05 0.0005 1.46608e-07 
101 1 0.0345518 0.0162665 0.00818655 0.00114566 -0.019287 0.0144341 1.81421e-08 8.48297e-08 -1.0038e-07 0.0005 1.46608e-07 
102 1 0.0813752 0.0233066 0.00781829 0.0349994 -0.0773447 -0.110731 0 0 -1.43822e-06 0.0005 1.46608e-07 
103 1 0.019426 0.0231044 0.0138648 -0.0222849 -0.00376504 -0.0346354 0 0 -1.43822e-06 0.0005 1.46608e-07 
105 1 0.0241988 0.0227882 0.0092885 0.00215138 -0.000511579 -0.00575032 -7.88545e-06 -7.50039e-07 -6.01336e-07 0.0005 1.46608e-07 
106 1 0.0403447 0.015765 0.00877211 0.000199616 -0.0157151 0.0192225 -1.12606e-09 6.98365e-09 1.44831e-08 0.0005 1.46608e-07 
108 1 0.0300195 0.0222265 0.00856439 0.000258991 -0.0165372 -0.0180588 -1.61061e-09 -1.74865e-08 3.36666e-09 0.0005 1.46608e-07 
112 1 0.00197664 0.0139506 0.0435188 -9.69236e-317 -9.6912e-317 3.10717e-12 0 0 0 0.0005 1.46608e-07 
116 1 0.01849 0.0140201 0.0129388 -0.000202239 0.000911636 -0.00204451 4.29537e-07 1.88556e-07 1.10026e-06 0.0005 1.46608e-07 
119 1 0.0201949 0.0137819 0.0136432 -3.7756e-05 4.2153e-05 -6.74089e-05 -2.61539e-08 -2.3322e-08 -2.74991e-07 0.0005 1.46608e-07 
123 1 0.0910328 0.0189119 0.00581756 -1.02292e-14 1.48975e-14 1.99443e-13 1.58819e-22 1.05879e-22 0 0.0005 1.46608e-07 
125 1 0.0220684 0.0156491 0.0144969 0.000235937 0.0172632 0.0211052 -8.32351e-08 2.95999e-07 -4.14605e-07 0.0005 1.46608e-07 
127 1 0.0173996 0.0144662 0.0124364 -0.00111775 0.0357375 -0.0960337 1.07109e-07 3.60692e-07 -1.04582e-06 0.0005 1.46608e-07 
128 1 0.0323908 0.0183312 0.0156992 0.000906126 0.021853 0.00486176 3.66678e-09 -7.55035e-09 -1.27252e-08 0.0005 1.46608e-07 
135 1 0.0799952 0.0188016 0.0058611 1.53324e-14 5.18618e-14 2.19687e-13 -1.09982e-20 -1.11173e-21 1.90582e-21 0.0005 1.46608e-07 
136 1 0.0202779 0.0234776 0.0117508 0.0001643 0.00138907 -0.000476012 -8.27224e-07 4.23744e-08 -1.4323e-07 0.0005 1.46608e-07 
137 1 0.0215065 0.0172261 0.0155557 -0.00164937 0.0234158 0.0106467 -2.23054e-07 3.82071e-07 -1.13558e-07 0.0005 1.46608e-07 
138 1 0.0154475 0.0151214 0.0135894 0.0196077 -0.0059912 -0.0157487 -8.45308e-08 -4.85409e-07 -8.34766e-07 0.0005 1.46608e-07 
141 1 0.0610293 0.0200237 0.00583703 -4.89517e-15 -6.78093e-14 1.88023e-13 3.14593e-20 0 8.47033e-22 0.0005 1.46608e-07 
143 1 0.0314037 0.0222688 0.0143811 0.000923168 0.014391 -0.0178619 -7.37483e-09 -4.31672e-09 -2.33506e-08 0.0005 1.46608e-07 
144 1 0.0215887 0.0216813 0.01508 -4.5874e-05 0.0220134 -0.0162049 -1.04125e-08 6.04831e-08 -4.44732e-08 0.0005 1.46608e-07 
145 1 0.0420284 0.0222478 0.00858732 0.00355338 -0.0109688 -0.0105561 -3.13055e-08 -6.65527e-08 -7.52269e-08 0.0005 1.46608e-07 
155 1 0.0365148 0.0233041 0.0106843 0.00428072 -0.00428171 -0.013114 -2.23085e-06 -5.89562e-06 -2.50134e-05 0.0005 1.46608e-07 
158 1 0.0268572 0.0162802 0.0147705 0.00139962 0.0168728 0.0124697 -1.29589e-08 4.02672e-08 1.31353e-08 0.0005 1.46608e-07 
162 1 0.0379095 0.0187726 0.00571644 1.83331e-20 1.45333e-21 1.8267e-20 0 0 0 0.0005 1.46608e-07 
164 1 0.0243596 0.0231044 0.00998915 0.00287605 -0.00300616 -0.0127031 -1.02425e-06 6.91968e-06 1.57566e-05 0.0005 1.46608e-07 
166 1 0.0198516 0.0210002 0.0157723 -0.000118675 0.026666 -0.0120074 -3.62318e-09 -4.99873e-08 -1.08018e-07 0.0005 1.46608e-07 
172 1 0.0260861 0.0194715 0.0157674 0.0051719 0.015651 -0.00302115 1.13063e-07 -2.36448e-08 9.49183e-08 0.0005 1.46608e-07 
177 1 0.0355885 0.020993 0.00773721 0.00142715 -0.019685 -0.00838964 -4.84692e-09 -1.85657e-08 5.08804e-09 0.0005 1.46608e-07 
180 1 0.0311126 0.0228693 0.0134226 0.000889957 0.0138312 -0.0217377 1.62633e-08 -2.51516e-08 -1.08116e-08 0.0005 1.46608e-07 
181 1 0.0297033 0.021236 0.00776233 0.00123408 -0.0190616 -0.00984891 -1.63507e-08 -3.65476e-08 -4.86964e-09 0.0005 1.46608e-07 
187 1 0.0174454 0.024053 0.0131311 -1.69773e-07 0.000706567 -0.000340899 8.14822e-10 1.49541e-08 -7.84779e-09 0.0005 1.46608e-07 
190 1 0.0133546 0.00211829 0.0435188 -9.71277e-317 -9.74727e-317 1.79684e-12 0 0 0 0.0005 1.46608e-07 
191 1 0.0360001 0.0221697 0.00858295 0.00131365 -0.0129581 -0.0153547 -1.7266e-08 -3.52924e-08 -2.49169e-08 0.0005 1.46608e-07 
195 1 0.0222486 0.0239172 0.0143753 -0.00312682 0.000348755 -0.0039334 -1.77697e-06 3.82864e-06 6.59994e-06 0.0005 1.46608e-07 
197 1 0.0935581 0.0183371 0.00588747 1.06171e-14 1.89484e-14 2.48644e-13 -2.47757e-20 1.50613e-20 0 0.0005 1.46608e-07 
199 1 0.022105 0.0147239 0.0134766 0.0142263 0.00838976 0.000862843 -2.39711e-07 -1.88931e-08 -4.77921e-07 0.0005 1.46608e-07 
204 1 0.118145 0.0201427 0.00585321 -1.10765e-15 -1.75113e-14 8.4019e-14 3.07546e-20 -1.42937e-21 2.11758e-22 0.0005 1.46608e-07 
205 1 0.0383524 0.0184984 0.0156657 -0.00116142 0.0241346 0.00490985 3.21541e-10 1.91809e-08 -3.84738e-08 0.0005 1.46608e-07 
209 1 0.026503 0.0209263 0.0154004 0.00360303 -0.000313089 0.00112798 -9.4128e-08 -3.04543e-08 -8.42118e-08 0.0005 1.46608e-07 
212 1 0.0328627 0.0162995 0.0148149 0.0014566 0.0188841 0.0162844 -3.98719e-08 3.55006e-08 1.87261e-08 0.0005 1.46608e-07 
213 1 0.0209658 0.0161203 0.0148445 -0.000155917 0.0201813 0.017701 -1.3561e-08 4.78624e-08 -1.76292e-08 0.0005 1.46608e-07 
221 1 0.0340761 0.015129 0.00976136 0.00406043 -0.00403561 0.0107414 -5.84025e-06 3.6707e-06 -1.36547e-05 0.0005 1.46608e-07 
225 1 0.0186271 0.0241615 0.0131132 0.000475867 -0.000894128 -0.00207442 6.62119e-08 8.19579e-08 7.72538e-09 0.0005 1.46608e-07 
226 1 0.0392841 0.0151447 0.0132668 0.00129809 0.0107488 0.0219857 -2.98625e-08 -6.24001e-08 -2.71959e-08 0.0005 1.46608e-07 
227 1 0.0224008 0.0158262 0.0086056 0.00248497 -0.0108769 0.0128088 -9.05571e-09 -7.88361e-08 2.15747e-07 0.0005 1.46608e-07 
229 1 0.0408977 0.0177865 0.00738518 1.11922e-05 -0.0189099 0.00631368 -6.8169e-09 -1.44044e-08 2.35071e-08 0.0005 1.46608e-07 
230 1 0.0219053 0.0164319 0.0150972 -0.000489531 0.0211879 0.0154503 -4.12576e-08 2.03143e-07 7.05162e-07 0.0005 1.46608e-07 
234 1 0.0196645 0.0221679 0.0146697 -1.40675e-05 0.0584604 -0.0598519 7.64507e-10 3.27224e-07 -5.23172e-07 0.0005 1.46608e-07 
235 1 0.0361952 0.0226295 0.00923253 0.000888738 -0.0122288 -0.0200589 -1.30388e-08 -2.27551e-08 -1.77829e-08 0.0005 1.46608e-07 
242 1 0.0264841 0.0175233 0.0154756 -0.000438613 0.0224163 0.00787131 1.22982e-08 6.26869e-08 -3.23424e-09 0.0005 1.46608e-07 
244 1 0.0259558 0.0202306 0.0156483 0.00316292 0.0136596 -0.00178753 -1.03455e-07 -2.19534e-07 5.91682e-08 0.0005 1.46608e-07 
249 1 0.0181927 0.0225899 0.00927146 9.90084e-05 -0.0134214 -0.0217149 -1.76477e-09 -1.44438e-08 4.84675e-09 0.0005 1.46608e-07 
250 1 0.0368607 0.023342 0.0120429 0.00176981 0.00160706 -0.0193299 1.89848e-08 -2.98911e-08 5.89539e-08 0.0005 1.46608e-07 
252 1 0.0193151 0.0234753 0.0117334 0.000883968 0.00138996 -0.000910401 -1.30482e-07 -5.17907e-08 4.75628e-07 0.0005 1.46608e-07 
253 1 0.0277749 0.0147453 0.0112602 0.000717576 -0.00188552 0.0147242 1.41944e-07 -6.17102e-08 -2.63828e-07 0.0005 1.46608e-07 
255 1 0.00841998 0.0220148 0.0065957 5.70302e-15 -2.44708e-14 6.92182e-14 3.86326e-20 1.41878e-20 7.41154e-21 0.0005 1.46608e-07 
256 1 0.0242804 0.0223435 0.0156014 -0.00597802 0.00563495 -0.00300042 3.54245e-06 -2.79415e-06 1.64584e-06 0.0005 1.46608e-07 
257 1 0.018961 0.0137433 0.0137764 -6.18359e-06 -0.00102835 -0.00179505 -1.22908e-06 -3.28309e-06 2.22705e-06 0.0005 1.46608e-07 
260 1 0.020748 0.0240813 0.0132206 -0.00329465 0.00143343 0.00127571 -4.25905e-06 1.35975e-06 -5.11854e-07 0.0005 1.46608e-07 
265 1 0.035027 0.0183512 0.00729152 0.000591146 -0.0262908 -0.000185063 1.44965e-09 1.34933e-09 4.82646e-09 0.0005 1.46608e-07 
266 1 0.0322341 0.0190278 0.0158304 0.00306217 0.0161668 0.00124472 -5.09353e-09 -5.3872e-09 5.52544e-10 0.0005 1.46608e-07 
268 1 0.0232083 0.019082 0.00721983 0.00201536 -0.025035 0.00384588 1.27942e-06 -5.46962e-07 4.50725e-07 0.0005 1.46608e-07 
270 1 0.0239554 0.0220213 0.00858839 0.00112832 -0.0169634 -0.015461 -1.2774e-08 -3.28259e-08 -1.12879e-08 0.0005 1.46608e-07 
271 1 0.0378149 0.0205653 0.0154799 0.00507005 0.0103093 -0.00758782 4.07357e-06 1.54262e-05 -2.33494e-05 0.0005 1.46608e-07 
275 1 0.027157 0.0155015 0.0138771 0.000586189 0.0117001 0.0196236 7.86535e-07 -8.25027e-06 -7.33243e-06 0.0005 1.46608e-07 
278 1 0.0780892 0.0197976 0.00577259 2.40618e-15 -4.18122e-14 1.54367e-13 2.17714e-21 2.11758e-22 0 0.0005 1.46608e-07 
283 1 0.0233877 0.0197893 0.0073386 0.00237444 -0.0192967 -0.0083751 1.70952e-05 1.32804e-05 5.73813e-06 0.0005 1.46608e-07 
284 1 0.0778211 0.0188379 0.00591496 5.21455e-15 -3.12769e-14 -1.20225e-13 -2.09773e-21 1.05879e-22 0 0.0005 1.46608e-07 
291 1 0.0229045 0.0223278 0.0155787 -0.0195806 0.0298801 -0.0247708 2.52382e-07 3.67629e-07 -3.27093e-07 0.0005 1.46608e-07 
294 1 0.0227919 0.0171078 0.00655212 2.6486e-14 -5.64299e-14 -2.04449e-13 4.31457e-21 -1.69407e-21 8.47033e-22 0.0005 1.46608e-07 
297 1 0.0398825 0.0148543 0.0108067 0.0004648 -0.00273302 0.0232879 -4.69847e-09 1.18785e-08 1.95849e-08 0.0005 1.46608e-07 
298 1 0.0274521 0.0148935 0.0124697 0.000283506 0.00610698 0.0234948 -1.40007e-09 1.62924e-08 4.57627e-09 0.0005 1.46608e-07 
300 1 0.0318242 0.0205871 0.0154503 0.000429595 0.0223421 -0.00906224 -1.71905e-09 3.70718e-09 -1.52673e-08 0.0005 1.46608e-07 
301 1 0.03581 0.0217678 0.00811308 0.000609178 -0.0120453 -0.0101304 -9.74303e-10 -2.72116e-08 -3.18304e-09 0.0005 1.46608e-07 
303 1 0.0326147 0.017155 0.0153529 0.000291627 0.0215821 0.00990988 -1.29879e-09 1.49468e-08 -8.8152e-09 0.0005 1.46608e-07 
304 1 0.030839 0.0233461 0.0119483 0.000897459 0.00179105 -0.0228152 -4.06737e-08 2.0767e-08 -1.46246e-07 0.0005 1.46608e-07 
307 1 0.0189734 0.0233866 0.0125844 0.004378 0.00071024 -0.00192213 2.75154e-07 -5.06788e-07 1.37942e-06 0.0005 1.46608e-07 
312 1 0.0198285 0.0239042 0.0125834 0.00446736 0.000167691 -0.000446893 2.02161e-07 -4.03208e-07 -4.08874e-07 0.0005 1.46608e-07 
314 1 0.0257134 0.0208653 0.0154604 0.00118083 0.0138676 -0.00799892 -5.34537e-08 2.34617e-08 -5.13933e-08 0.0005 1.46608e-07 
315 1 0.00842114 0.0323835 0.0435188 -9.72922e-317 -9.70169e-317 -1.69736e-12 0 0 0 0.0005 1.46608e-07 
316 1 0.0406566 0.0166302 0.00794932 0.00134969 -0.00782552 0.00506578 -1.03224e-08 -2.19794e-08 1.02483e-08 0.0005 1.46608e-07 
318 1 0.0289526 0.0180503 0.00732137 0.00126938 -0.0228554 0.0035279 2.09517e-08 -9.00214e-09 3.35418e-08 0.0005 1.46608e-07 
320 1 0.0816322 0.0177621 0.00599233 1.53221e-14 5.18554e-14 2.1969e-13 -1.18982e-20 -3.17637e-21 1.69407e-21 0.0005 1.46608e-07 
322 1 0.0388831 0.0190336 0.00572799 4.08878e-16 -2.02969e-15 1.00255e-14 6.76568e-20 -1.17526e-20 -5.71747e-21 0.0005 1.46608e-07 
325 1 0.0209054 0.0233827 0.0125231 -1.59156e-05 0.00135043 0.00125789 -8.68723e-07 -5.77225e-07 8.82977e-07 0.0005 1.46608e-07 
326 1 0.0210903 0.0141489 0.0133914 0.00126894 -0.00082229 0.00330981 1.27039e-08 -4.63316e-09 4.08788e-08 0.0005 1.46608e-07 
328 1 0.0287017 0.0167433 0.00784866 0.000956619 -0.0185893 0.0125524 -1.66804e-08 -2.90382e-08 3.51413e-08 0.0005 1.46608e-07 
329 1 0.0624304 0.0176319 0.0060023 5.79327e-15 1.4291e-14 1.12906e-13 -4.37678e-20 1.47701e-20 4.23516e-22 0.0005 1.46608e-07 
331 1 0.0194904 0.0140013 0.0129683 0.000487653 0.000430289 -0.000541797 7.71069e-07 -7.10062e-07 7.49001e-08 0.0005 1.46608e-07 
333 1 0.0331242 0.015575 0.0140533 0.000823836 0.0135821 0.0218539 9.59874e-09 7.62493e-09 -2.06495e-08 0.0005 1.46608e-07 
335 1 0.0219271 0.0148489 0.0106412 0.000155335 -0.00565637 0.0251031 -1.52725e-09 1.35756e-08 9.19359e-09 0.0005 1.46608e-07 
338 1 0.0201512 0.0231668 0.0131766 0.00559621 0.000540091 -0.000513187 4.91584e-07 -6.87843e-07 8.62399e-07 0.0005 1.46608e-07 
340 1 0.0335683 0.0147963 0.0120374 0.000209906 0.00186696 0.0252637 4.91452e-09 -5.50451e-08 -1.22519e-07 0.0005 1.46608e-07 
