ITEM: TIMESTEP
18000000
ITEM: NUMBER OF ATOMS
120
ITEM: BOX BOUNDS ff ff ff
-0.02 0.43
-0.02 0.06
-0.02 0.07
ITEM: ATOMS id type x y z vx vy vz fx fy fz radius mass 
1 1 0.0354004 0.0218819 0.00821616 0.00229641 -0.00122902 -0.00299295 -7.87377e-08 3.41701e-08 3.53084e-08 0.0005 1.46608e-07 
8 1 0.0691996 0.0213037 0.00637449 0.272723 -0.0549966 -0.0205065 0 0 -1.43822e-06 0.0005 1.46608e-07 
9 1 0.0205407 0.0140195 0.0132629 0.00226664 0.00505565 -0.0104655 1.40148e-07 3.40791e-07 -6.95898e-07 0.0005 1.46608e-07 
11 1 0.0650666 0.0182067 0.00579668 1.17656e-15 -5.58044e-15 -9.51141e-14 3.64952e-21 1.08526e-21 0 0.0005 1.46608e-07 
14 1 0.043243 0.0208957 0.0154211 0.00152147 0.0174272 -0.00738304 9.57792e-07 -9.34554e-07 -3.32264e-07 0.0005 1.46608e-07 
15 1 0.0444027 0.0162905 0.0147921 0.00124318 0.0169204 0.0129607 -1.38212e-08 4.87063e-08 1.76911e-08 0.0005 1.46608e-07 
16 1 0.0287044 0.0189523 0.00716855 0.00175592 -0.018135 0.00107016 -1.21968e-08 -7.84204e-08 2.99827e-08 0.0005 1.46608e-07 
18 1 0.0428655 0.022396 0.0141541 0.000430619 0.0163876 -0.0184927 -1.87863e-09 -1.44159e-08 -5.36683e-09 0.0005 1.46608e-07 
19 1 0.0335275 0.0150666 0.00996393 0.00355345 -0.00486441 0.0142667 -1.37849e-08 -8.93692e-09 4.28945e-08 0.0005 1.46608e-07 
21 1 0.0313545 0.0204777 0.015506 0.0022186 0.0146418 -0.00688762 -3.65785e-06 7.90849e-06 -3.79387e-06 0.0005 1.46608e-07 
22 1 0.0818515 0.0198441 0.0060177 1.18937e-14 3.3915e-14 -2.26085e-15 7.17673e-17 1.98654e-16 5.22062e-17 0.0005 1.46608e-07 
23 1 0.0591852 0.0175257 0.00598648 -1.30179e-14 2.70993e-14 3.32729e-13 3.36365e-20 2.56492e-20 -1.27055e-21 0.0005 1.46608e-07 
26 1 0.0148603 0.0229634 0.0145418 -6.52214e-05 -0.0055302 -0.0110684 -2.70625e-08 -7.40398e-08 -1.03331e-07 0.0005 1.46608e-07 
32 1 0.0888329 0.0186042 0.00572716 -1.17107e-14 1.69435e-14 2.26606e-13 -7.75565e-21 -4.27884e-20 2.75286e-21 0.0005 1.46608e-07 
33 1 0.0458809 0.0158169 0.00875769 0.0023874 -0.00923498 0.0134655 -5.31236e-09 -7.61384e-09 1.69171e-08 0.0005 1.46608e-07 
38 1 0.154353 0.0180393 0.00580707 8.86841e-15 -2.34391e-14 1.89549e-13 2.22703e-19 7.05684e-20 -8.47033e-22 0.0005 1.46608e-07 
40 1 0.0185771 0.0140013 0.0129683 7.83676e-06 -0.00140496 0.00232474 3.10297e-09 -2.59229e-08 6.6337e-08 0.0005 1.46608e-07 
41 1 0.0284672 0.0179443 0.00736844 0.000311084 -0.0244316 0.00622871 -3.61287e-09 -5.85973e-09 1.23624e-08 0.0005 1.46608e-07 
45 1 0.0453908 0.0181374 0.00608985 4.49566e-15 2.51189e-14 1.72928e-13 1.51539e-21 0 0 0.0005 1.46608e-07 
47 1 0.0418564 0.0231083 0.010072 0.000437357 -0.0065406 -0.0169183 -2.52034e-09 -2.61513e-08 -5.64676e-09 0.0005 1.46608e-07 
48 1 0.0237023 0.0228981 0.00947523 2.94977e-05 -0.00503517 -0.0101352 -5.92322e-06 9.01582e-05 0.000126077 0.0005 1.46608e-07 
50 1 0.0357342 0.0228887 0.00958098 0.000239596 -0.0112337 -0.021862 -1.15898e-09 -1.63492e-08 -2.62138e-10 0.0005 1.46608e-07 
53 1 0.0467504 0.019383 0.00717945 0.00226745 -0.00150795 -0.00272585 5.014e-08 3.07097e-08 5.862e-08 0.0005 1.46608e-07 
54 1 0.0800452 0.0202034 0.00595135 -2.54862e-07 2.07287e-07 5.4613e-08 6.06193e-12 -6.11628e-12 -2.5076e-12 0.0005 1.46608e-07 
55 1 0.0161599 0.0148782 0.0130632 -0.00102849 -0.00118109 0.00081692 0 0 -1.43822e-06 0.0005 1.46608e-07 
59 1 0.0460442 0.0163457 0.00816742 0.00107331 -0.00847231 0.00478926 1.36477e-09 3.10363e-10 -3.42797e-08 0.0005 1.46608e-07 
61 1 0.042418 0.0232429 0.0125612 0.000340425 0.00614636 -0.0232361 5.83521e-10 -1.10134e-08 -1.17027e-08 0.0005 1.46608e-07 
62 1 0.081496 0.0187826 0.00576095 1.35175e-14 4.57951e-14 1.9327e-13 8.14078e-20 3.89476e-19 -9.74088e-20 0.0005 1.46608e-07 
63 1 0.0394533 0.0149425 0.0102228 0.00339229 -0.00426376 0.0104748 -7.98098e-08 4.68282e-07 7.74407e-07 0.0005 1.46608e-07 
67 1 0.0416517 0.0226866 0.0092178 0.00163843 -0.00798442 -0.015513 5.10374e-09 2.24385e-08 4.42551e-08 0.0005 1.46608e-07 
77 1 0.0412712 0.0213918 0.00792145 0.00012761 -0.0212027 -0.0144685 -1.29894e-09 -1.28374e-08 8.84863e-09 0.0005 1.46608e-07 
80 1 0.0316376 0.0194572 0.015802 0.00394617 0.00390322 0.00100422 -3.8408e-07 3.23423e-06 -2.42545e-06 0.0005 1.46608e-07 
82 1 0.0422619 0.0233975 0.0116961 0.00078947 0.0019113 -0.0229705 9.46824e-10 -1.17286e-08 -4.28524e-09 0.0005 1.46608e-07 
83 1 0.0263515 0.0164156 0.0148931 0.000800565 0.0173851 0.0123859 -1.00677e-08 4.42716e-08 2.11388e-09 0.0005 1.46608e-07 
85 1 0.0469482 0.0201981 0.00737549 0.00124156 -0.0158651 -0.0053285 7.0536e-08 5.26015e-08 1.88969e-08 0.0005 1.46608e-07 
88 1 0.0214545 0.0142435 0.0136546 0.0043593 0.000580473 0.00431523 -2.11525e-07 -7.12633e-09 -4.9533e-07 0.0005 1.46608e-07 
93 1 0.0337542 0.0154244 0.00920312 0.000764455 -0.012785 0.0192528 2.60807e-09 1.27996e-08 1.10738e-08 0.0005 1.46608e-07 
95 1 0.0381702 0.0170449 0.0152797 0.00189493 0.0187624 0.00877372 -1.52245e-08 4.90848e-08 5.70606e-09 0.0005 1.46608e-07 
99 1 0.0272513 0.0147621 0.0112402 0.000348431 -0.00265458 0.0246357 -3.92429e-10 1.11204e-08 5.57223e-09 0.0005 1.46608e-07 
101 1 0.0389562 0.0148961 0.0125789 0.00106164 0.00408126 0.0220292 -1.50897e-08 4.54542e-08 -1.93598e-08 0.0005 1.46608e-07 
102 1 0.0865114 0.0176774 0.00596015 -7.34137e-16 2.25692e-14 7.79337e-14 3.57709e-19 1.32349e-20 -6.35275e-22 0.0005 1.46608e-07 
106 1 0.0436124 0.0195019 0.0157345 0.000271618 0.0244265 -0.00296706 -2.83867e-09 8.39764e-09 -1.44368e-08 0.0005 1.46608e-07 
108 1 0.0330887 0.0148151 0.0120752 0.00136436 0.00153564 0.0210293 4.10123e-09 3.64464e-08 -2.78405e-08 0.0005 1.46608e-07 
112 1 0.00197664 0.0139506 0.0435188 -9.69236e-317 -9.6912e-317 3.10717e-12 0 0 0 0.0005 1.46608e-07 
116 1 0.0234307 0.0219897 0.00851877 0.000521942 -0.0181173 -0.0158327 -2.85052e-09 -1.85891e-08 5.38458e-09 0.0005 1.46608e-07 
123 1 0.0910328 0.0189119 0.00581756 -1.03414e-14 1.48968e-14 1.99437e-13 2.15729e-21 9.26442e-23 2.11758e-22 0.0005 1.46608e-07 
125 1 0.02165 0.0152511 0.0138272 0.00876186 0.00376433 0.00348474 -1.0756e-07 6.18873e-08 -7.39708e-07 0.0005 1.46608e-07 
127 1 0.0234871 0.0150244 0.0148703 0.00473523 0.00323447 0.00244447 2.70475e-08 2.2648e-07 -5.73844e-08 0.0005 1.46608e-07 
128 1 0.0366488 0.022907 0.0134815 0.00191195 0.00941451 -0.0196237 -2.62412e-08 6.2829e-09 -4.42405e-08 0.0005 1.46608e-07 
135 1 0.0795066 0.0193833 0.00575785 3.20103e-07 -1.35746e-07 -2.90646e-08 -9.02069e-12 2.30485e-12 1.81324e-12 0.0005 1.46608e-07 
136 1 0.0182661 0.0234568 0.0116767 -0.000563394 -0.000295104 -0.0932278 0.000350123 0.000399791 -0.00251532 0.0005 1.46608e-07 
137 1 0.0169482 0.0146784 0.0123814 0.00352664 -0.00215511 -0.000858815 1.04444e-07 1.154e-07 -3.15475e-07 0.0005 1.46608e-07 
138 1 0.0213447 0.0148058 0.0107544 0.000202074 -0.00522397 0.0247934 -7.60581e-10 1.33177e-08 7.43989e-09 0.0005 1.46608e-07 
141 1 0.0679057 0.0197258 0.00574271 -4.22301e-15 1.99897e-14 3.40748e-13 -6.10459e-21 -1.12497e-21 0 0.0005 1.46608e-07 
143 1 0.0351188 0.0213162 0.00788324 0.00422841 -0.00984414 -0.00146035 -1.79224e-08 -1.1757e-07 -8.71409e-08 0.0005 1.46608e-07 
144 1 0.0267778 0.0151963 0.0132785 -0.000111426 0.00957218 0.0239816 -4.63975e-10 1.59543e-08 -2.13511e-09 0.0005 1.46608e-07 
145 1 0.0456532 0.015322 0.00974794 0.000150536 -0.00972582 0.0235994 -2.72432e-09 1.22328e-08 1.61912e-08 0.0005 1.46608e-07 
155 1 0.0408218 0.0196209 0.00720368 0.000604998 -0.0229556 -0.00283831 -4.5191e-09 -8.29922e-09 1.32415e-08 0.0005 1.46608e-07 
158 1 0.0300289 0.0233092 0.010615 0.000947223 -0.00312876 -0.0222002 2.15175e-07 1.66546e-07 7.06424e-07 0.0005 1.46608e-07 
162 1 0.0379095 0.0187726 0.00571644 1.83331e-20 1.45333e-21 1.8267e-20 0 0 0 0.0005 1.46608e-07 
164 1 0.028204 0.0169932 0.00768649 0.00138703 -0.0176014 0.0088716 5.11683e-10 5.57028e-09 1.41755e-08 0.0005 1.46608e-07 
172 1 0.0295069 0.0222839 0.00866087 0.00150938 -0.0183984 -0.0183668 4.37349e-09 -7.83536e-08 -1.19173e-07 0.0005 1.46608e-07 
177 1 0.0397697 0.0155423 0.00909306 0.000176567 -0.0151378 0.021202 -1.10365e-09 7.61491e-09 1.64332e-08 0.0005 1.46608e-07 
180 1 0.0348252 0.0197486 0.00742521 0.000358464 -0.0251112 -0.00497321 -4.52624e-09 -5.36897e-09 1.39621e-08 0.0005 1.46608e-07 
181 1 0.0326064 0.0154763 0.0139192 -1.28398e-05 0.0132333 0.0222811 3.94252e-09 1.55267e-08 -4.81684e-09 0.0005 1.46608e-07 
190 1 0.0133546 0.00211829 0.0435188 -9.71277e-317 -9.74727e-317 1.79684e-12 0 0 0 0.0005 1.46608e-07 
191 1 0.040231 0.0170953 0.00765083 0.000210887 -0.0227492 0.0107589 1.71526e-09 1.34952e-09 1.8567e-08 0.0005 1.46608e-07 
197 1 0.0935581 0.0183371 0.00588747 1.06001e-14 1.8952e-14 2.48644e-13 3.39872e-20 -1.02173e-20 -6.35275e-22 0.0005 1.46608e-07 
199 1 0.0210924 0.0146656 0.0123194 0.00432292 -2.1285e-06 0.00535412 -3.36269e-08 1.34173e-07 -1.61973e-07 0.0005 1.46608e-07 
204 1 0.118145 0.0201427 0.00585321 -1.10707e-15 -1.75121e-14 8.40188e-14 2.75054e-20 -2.11758e-22 4.23516e-22 0.0005 1.46608e-07 
205 1 0.0420908 0.0233633 0.010884 0.00140415 -0.00338889 -0.0190519 -6.5693e-10 -2.47385e-08 -9.72239e-09 0.0005 1.46608e-07 
209 1 0.0305401 0.0230552 0.0130666 0.000109296 0.0111991 -0.0236895 -5.7426e-08 -9.32306e-09 2.27744e-08 0.0005 1.46608e-07 
212 1 0.0374424 0.0201378 0.0156941 0.00543028 0.00461841 -0.000109504 1.83876e-08 -4.99828e-08 -2.59115e-08 0.0005 1.46608e-07 
221 1 0.0384106 0.0161955 0.0147024 0.000181565 0.0185142 0.0179961 -5.51303e-10 1.46289e-08 -7.55054e-09 0.0005 1.46608e-07 
225 1 0.0218555 0.0148282 0.0129447 0.00519471 0.00125743 0.00392002 -9.13362e-08 1.60526e-07 -6.98679e-07 0.0005 1.46608e-07 
226 1 0.0426406 0.0229234 0.0134626 0.000805252 0.01027 -0.0179841 -1.91492e-08 -3.37076e-08 1.76378e-08 0.0005 1.46608e-07 
227 1 0.0226704 0.0150696 0.0134714 0.00535833 0.00158887 0.00351919 -5.56087e-07 -1.4717e-07 -4.24342e-07 0.0005 1.46608e-07 
229 1 0.0441179 0.0172228 0.0153675 0.000109115 0.0226078 0.0115058 -1.69495e-09 1.11381e-08 -1.06482e-08 0.0005 1.46608e-07 
230 1 0.0275416 0.0150626 0.00990087 0.000168313 -0.00981585 0.023136 -4.24245e-10 1.1312e-08 1.11983e-08 0.0005 1.46608e-07 
234 1 0.0206648 0.0154453 0.0141065 0.00508742 0.00634581 0.00960289 -3.03748e-09 1.86721e-07 -4.23146e-07 0.0005 1.46608e-07 
235 1 0.0405513 0.0182992 0.00723875 0.00084838 -0.0220764 0.00456614 -7.59362e-09 -2.29861e-08 2.55179e-08 0.0005 1.46608e-07 
242 1 0.0297284 0.022883 0.00941295 0.00101465 -0.00956446 -0.0185073 -7.66869e-09 -1.68217e-08 1.05107e-08 0.0005 1.46608e-07 
244 1 0.0292125 0.0211908 0.00776512 0.0043503 -0.0150888 -0.00489796 2.53807e-06 -9.75476e-07 -1.03086e-06 0.0005 1.46608e-07 
250 1 0.041004 0.0205254 0.00741462 0.00108279 -0.0188775 -0.00755365 7.28177e-09 3.91602e-09 1.98456e-08 0.0005 1.46608e-07 
253 1 0.0311013 0.0215188 0.0150164 2.14531e-05 0.0225883 -0.0137731 1.9548e-09 -7.04755e-09 -1.36854e-08 0.0005 1.46608e-07 
255 1 0.00841998 0.0220148 0.0065957 5.71357e-15 -2.44699e-14 6.92176e-14 3.3749e-21 -1.01115e-20 -3.81165e-21 0.0005 1.46608e-07 
256 1 0.0249648 0.0214075 0.0152124 0.00158373 0.000813043 0.00144924 4.84833e-08 -1.94975e-07 1.49301e-07 0.0005 1.46608e-07 
257 1 0.0255843 0.019875 0.0158765 0.00104098 0.0180672 -0.0032415 -2.65508e-08 3.70047e-07 -5.378e-07 0.0005 1.46608e-07 
260 1 0.0230385 0.020465 0.00758108 -0.000299007 -0.0227673 -0.0126543 3.97322e-09 -5.64974e-09 1.23924e-08 0.0005 1.46608e-07 
265 1 0.0392397 0.0148152 0.0113591 0.000164723 -0.000675351 0.0249665 -1.09705e-09 1.40438e-08 6.6076e-09 0.0005 1.46608e-07 
266 1 0.0362906 0.0233714 0.0119063 0.00121747 0.00416977 -0.0185204 -3.2923e-09 -5.16766e-08 2.75832e-08 0.0005 1.46608e-07 
270 1 0.0208803 0.0149602 0.0132591 0.0035776 0.00350708 0.0107257 -6.78786e-08 -4.59761e-08 -3.12813e-07 0.0005 1.46608e-07 
271 1 0.0415156 0.0222956 0.00860575 0.00214285 -0.00391237 -0.00610499 3.8084e-09 4.97859e-08 6.65057e-08 0.0005 1.46608e-07 
275 1 0.030343 0.0233192 0.0121492 0.000751622 0.00258152 -0.023868 2.3486e-08 6.96898e-08 3.08605e-08 0.0005 1.46608e-07 
278 1 0.0780892 0.0197976 0.00577259 2.40705e-15 -4.18119e-14 1.54367e-13 1.23349e-20 5.82335e-22 0 0.0005 1.46608e-07 
283 1 0.0279041 0.0158265 0.00869998 0.00119893 -0.0153946 0.0172177 -2.37002e-08 -9.60035e-08 8.80288e-08 0.0005 1.46608e-07 
284 1 0.0778211 0.0188379 0.00591496 5.21469e-15 -3.12771e-14 -1.20225e-13 -8.20563e-22 0 0 0.0005 1.46608e-07 
294 1 0.0227919 0.0171078 0.00655212 2.6483e-14 -5.64325e-14 -2.04448e-13 3.17637e-21 -1.05879e-21 6.35275e-22 0.0005 1.46608e-07 
297 1 0.043072 0.0216564 0.0149178 0.000500015 0.0174453 -0.0142968 -1.12741e-06 -2.11482e-06 1.92162e-06 0.0005 1.46608e-07 
298 1 0.0308789 0.0223202 0.0142012 0.000456184 0.0102907 -0.0115892 6.52956e-09 -1.24418e-08 1.76402e-08 0.0005 1.46608e-07 
300 1 0.0355125 0.0223023 0.00870937 0.00132239 -0.00442524 -0.00674376 -3.61097e-08 1.16257e-07 6.48508e-08 0.0005 1.46608e-07 
301 1 0.0400446 0.016409 0.00807736 0.000705814 -0.0170751 0.0139947 -1.2801e-08 8.24576e-09 2.88835e-08 0.0005 1.46608e-07 
303 1 0.0369689 0.0219144 0.014595 0.000320591 0.0197011 -0.0167623 -3.91306e-09 -7.27476e-09 -1.33641e-08 0.0005 1.46608e-07 
304 1 0.0341116 0.0166055 0.00795476 0.000208773 -0.0226251 0.0134639 -1.51685e-09 5.59945e-09 1.43565e-08 0.0005 1.46608e-07 
307 1 0.0227369 0.0146088 0.0143563 0.00523244 0.00111533 0.0033924 -4.23497e-07 2.09849e-07 1.57613e-07 0.0005 1.46608e-07 
312 1 0.0195764 0.0139816 0.013001 0.000179396 0.00126252 -0.00211755 3.66107e-08 2.04506e-07 -3.38117e-07 0.0005 1.46608e-07 
314 1 0.0288906 0.0199738 0.00728963 0.000224057 -0.01846 -0.0041762 -1.1036e-08 -5.13505e-08 2.0084e-08 0.0005 1.46608e-07 
315 1 0.00842114 0.0323835 0.0435188 -9.72922e-317 -9.70169e-317 -1.69736e-12 0 0 0 0.0005 1.46608e-07 
316 1 0.0438785 0.0182568 0.0157203 0.000204001 0.0236437 0.00691571 -1.87507e-08 4.37651e-08 -1.53464e-09 0.0005 1.46608e-07 
318 1 0.0323635 0.0164399 0.0149256 0.000128865 0.0203981 0.0166134 -2.9101e-09 1.601e-08 -8.11142e-09 0.0005 1.46608e-07 
320 1 0.0817197 0.0176912 0.00600296 4.51304e-15 1.5277e-14 6.47201e-14 -9.26442e-23 2.64698e-22 0 0.0005 1.46608e-07 
322 1 0.0388831 0.0190336 0.00572799 3.91418e-16 -2.03503e-15 1.00251e-14 1.01498e-19 1.38172e-20 -1.48231e-21 0.0005 1.46608e-07 
325 1 0.0176286 0.0141044 0.0132677 -0.00126333 0.00127686 -0.00266815 -3.47294e-08 -8.16455e-09 3.03137e-08 0.0005 1.46608e-07 
326 1 0.0196084 0.0234834 0.0118152 2.77658e-05 -0.000608695 0.000107519 -3.76113e-07 1.34854e-08 -1.49304e-09 0.0005 1.46608e-07 
328 1 0.03204 0.0174593 0.0154814 0.00182999 0.0181403 0.00628799 7.55066e-09 -2.35202e-08 -2.32273e-08 0.0005 1.46608e-07 
329 1 0.0623783 0.0182526 0.00592036 6.09639e-15 2.7203e-14 1.94806e-13 -6.08805e-21 2.14405e-21 0 0.0005 1.46608e-07 
331 1 0.062856 0.0173563 0.00601538 5.75293e-15 1.43179e-14 1.12904e-13 4.07238e-20 -2.8508e-20 1.48231e-21 0.0005 1.46608e-07 
333 1 0.0376194 0.0195161 0.0157402 0.004429 0.0108184 0.000975454 2.37071e-08 -1.36861e-07 6.12467e-08 0.0005 1.46608e-07 
338 1 0.0271334 0.0147954 0.0120413 1.93017e-05 0.00454138 0.0235798 7.97304e-10 1.6991e-08 6.12849e-09 0.0005 1.46608e-07 
340 1 0.0378996 0.0181724 0.01564 8.90977e-05 0.0247281 0.00597684 -1.65644e-09 8.05499e-09 -1.38417e-08 0.0005 1.46608e-07 
