ITEM: TIMESTEP
2000000
ITEM: NUMBER OF ATOMS
324
ITEM: BOX BOUNDS ff ff ff
-0.02 0.43
-0.02 0.06
-0.02 0.07
ITEM: ATOMS id type x y z vx vy vz fx fy fz radius mass 
1 1 0.0214609 0.0243181 0.0140251 -0.00089146 0.00086102 3.62812e-05 1.10847e-06 -1.50532e-06 -1.49039e-05 0.0005 1.46608e-07 
2 1 0.0180349 0.023783 0.0135625 0.000499704 0.00228517 -0.00499575 -1.22456e-05 -6.49784e-06 2.03064e-05 0.0005 1.46608e-07 
3 1 0.0258482 0.0195204 0.0167346 -0.000273655 1.15191e-05 -0.00232082 2.58238e-06 -3.7576e-06 2.64615e-06 0.0005 1.46608e-07 
4 1 0.0189976 0.0189718 0.0167381 0.00365653 0.0208525 0.000216035 -9.64546e-07 6.55854e-07 4.57951e-07 0.0005 1.46608e-07 
5 1 0.0241353 0.0161045 0.0148476 0.00335689 0.0089457 0.00934053 3.57801e-06 -1.00975e-06 5.46456e-07 0.0005 1.46608e-07 
6 1 0.0138933 0.0156182 0.0154867 0.00662223 -0.0047398 -0.00818042 1.82788e-07 1.2607e-07 -4.76223e-07 0.0005 1.46608e-07 
7 1 0.0226895 0.0170843 0.0165231 0.0125981 0.00343609 -0.00345419 0 0 -1.43822e-06 0.0005 1.46608e-07 
8 1 0.0253579 0.0167764 0.0165761 -0.000827006 0.00134798 -0.00416838 -3.66299e-07 -8.41232e-07 6.99319e-07 0.0005 1.46608e-07 
9 1 0.022752 0.0231651 0.0156206 -0.00169006 -0.00133723 0.000590086 -1.04109e-06 -1.44855e-07 4.56473e-06 0.0005 1.46608e-07 
10 1 0.0223418 0.0196225 0.0159161 2.15014e-05 0.0188748 -0.00382456 2.52717e-07 -1.10897e-05 -2.45864e-06 0.0005 1.46608e-07 
11 1 0.0199304 0.0212948 0.00783847 0.00128436 -0.0193001 -0.0105247 -1.62798e-08 -3.83566e-08 -5.7579e-09 0.0005 1.46608e-07 
12 1 0.0230015 0.0166953 0.0152772 0.00268624 0.0133177 0.00751213 2.79045e-08 -9.06619e-08 -2.31027e-07 0.0005 1.46608e-07 
13 1 0.0174729 0.0243618 0.0139753 0.000883957 -0.000960007 0.00148882 -2.40201e-05 4.22289e-06 -3.28539e-06 0.0005 1.46608e-07 
14 1 0.0193305 0.0241098 0.0163663 0.0034645 0.00940851 0.0171426 0 0 -1.43822e-06 0.0005 1.46608e-07 
15 1 0.0246844 0.0176055 0.0157183 0.00274623 0.014743 0.00440262 4.87829e-06 -1.27617e-05 -1.16554e-05 0.0005 1.46608e-07 
16 1 0.0196743 0.0175839 0.0171638 0.00783692 0.0123512 -0.00775462 1.19376e-07 1.64253e-07 -2.31836e-07 0.0005 1.46608e-07 
17 1 0.0227475 0.0225926 0.0164747 -0.000101657 -0.00143268 0.000821956 8.66334e-07 1.97846e-06 2.691e-06 0.0005 1.46608e-07 
18 1 0.0221291 0.0144338 0.0140608 -8.75828e-05 -9.9181e-05 0.000249205 -1.23148e-07 -1.62803e-07 -9.84229e-09 0.0005 1.46608e-07 
19 1 0.0182757 0.0240834 0.0127639 -0.000123991 0.00307868 -0.00287762 -6.27448e-06 -2.53242e-07 5.55386e-06 0.0005 1.46608e-07 
20 1 0.023981 0.0169223 0.0154089 0.0014734 0.0120801 0.00751836 -5.42165e-08 -5.71642e-08 -2.75556e-08 0.0005 1.46608e-07 
21 1 0.0228429 0.0235 0.0142902 -0.00150798 -0.000890375 0.000536612 1.92869e-06 3.99538e-06 8.07034e-06 0.0005 1.46608e-07 
22 1 0.0188686 0.0146186 0.0119434 0.00592173 -0.00137101 0.00203735 -9.19629e-08 -1.50147e-08 1.85961e-07 0.0005 1.46608e-07 
23 1 0.0195836 0.0244784 0.0136136 -0.000579836 -0.00039086 -0.00241279 8.7677e-06 -1.51264e-07 7.00269e-06 0.0005 1.46608e-07 
24 1 0.0227387 0.0177305 0.0157494 -0.000181632 0.0251462 0.00743493 5.76965e-07 4.95156e-06 2.55582e-06 0.0005 1.46608e-07 
25 1 0.022699 0.0215752 0.0162864 -0.0103104 0.00420932 -0.0293154 0 0 -1.43822e-06 0.0005 1.46608e-07 
26 1 0.0181586 0.0239801 0.0145948 -0.00693639 -0.0202606 0.0322576 -8.24444e-05 4.17051e-05 -1.9038e-05 0.0005 1.46608e-07 
27 1 0.0229133 0.0203921 0.0157367 0.000315905 0.0124844 -0.00265967 1.13274e-05 -1.38363e-05 -3.17402e-06 0.0005 1.46608e-07 
28 1 0.0181522 0.013945 0.0163111 0.0012524 -0.00442682 0.00795163 -8.76534e-06 -1.11444e-05 2.55117e-05 0.0005 1.46608e-07 
29 1 0.0182004 0.0230356 0.0149328 -0.0267085 -0.0290718 0.0297228 8.83869e-08 9.55873e-07 -1.15457e-06 0.0005 1.46608e-07 
30 1 0.0205345 0.0244034 0.0137482 -0.000988828 0.00103429 -0.000834884 -2.49926e-06 8.32104e-08 -1.86806e-06 0.0005 1.46608e-07 
31 1 0.0199524 0.0236493 0.0140433 -0.0021472 0.00178057 -0.00390114 2.02366e-06 -7.26946e-06 -2.11509e-07 0.0005 1.46608e-07 
32 1 0.0234965 0.015118 0.0132637 0.00118569 0.00795211 0.0174085 1.36355e-09 1.40742e-08 -1.13325e-09 0.0005 1.46608e-07 
33 1 0.0263542 0.0225941 0.00905504 0.00154427 -0.0108048 -0.0150135 -9.61834e-09 -1.63537e-07 2.2788e-07 0.0005 1.46608e-07 
34 1 0.0202518 0.0215339 0.0161359 0.00395859 0.0125735 -0.00720169 7.53066e-06 -1.27833e-07 8.29375e-07 0.0005 1.46608e-07 
36 1 0.021419 0.0233974 0.0122188 -0.00569091 -6.95777e-05 -0.0125431 -1.73373e-05 6.72618e-06 4.27963e-05 0.0005 1.46608e-07 
37 1 0.0234311 0.0230831 0.0148822 -8.10142e-05 -4.32696e-05 0.000120314 9.64282e-06 -8.09481e-08 4.80989e-06 0.0005 1.46608e-07 
38 1 0.0226575 0.0220484 0.0147543 0.00437148 0.00151728 -0.000681848 1.40328e-05 -1.17284e-05 5.51032e-06 0.0005 1.46608e-07 
40 1 0.0220548 0.023903 0.0146973 -0.00152829 -0.000247419 0.00104976 3.6047e-06 6.30616e-06 4.4914e-06 0.0005 1.46608e-07 
41 1 0.0166846 0.0238648 0.0147663 0.00940087 0.0037013 -0.0111143 0 0 -1.43822e-06 0.0005 1.46608e-07 
42 1 0.0248691 0.0217438 0.0159149 0.000178271 0.000508189 0.000431945 8.83724e-07 6.93917e-08 2.75632e-07 0.0005 1.46608e-07 
43 1 0.0166207 0.0238822 0.0137639 0.00159795 0.00134934 0.00056295 3.55899e-06 8.52925e-07 -6.48348e-07 0.0005 1.46608e-07 
44 1 0.0183477 0.0213086 0.0162331 -0.000632523 -0.00173805 0.0150476 -3.13168e-06 -9.48625e-06 -1.3304e-07 0.0005 1.46608e-07 
45 1 0.0269446 0.0233981 0.0116262 0.000411718 0.00114247 -0.0248202 -8.04217e-10 -1.3944e-08 -7.24487e-09 0.0005 1.46608e-07 
46 1 0.0156545 0.0224642 0.0144756 0.00433081 0.00476477 -0.000771132 -2.43049e-06 2.82977e-06 1.3505e-06 0.0005 1.46608e-07 
47 1 0.0199164 0.0162276 0.0167877 0.00155113 -0.00157329 -0.00783942 -1.34467e-06 -5.1904e-07 1.53274e-07 0.0005 1.46608e-07 
48 1 0.0242311 0.015473 0.0156168 -5.44687e-06 -0.0010207 0.00096872 7.63908e-07 -5.70381e-07 5.20009e-07 0.0005 1.46608e-07 
49 1 0.0189591 0.0235621 0.0141674 -0.0314961 -0.0100505 0.00885689 8.06249e-05 -4.11836e-05 1.07888e-05 0.0005 1.46608e-07 
50 1 0.0158405 0.0235785 0.0143106 0.000597239 0.00108598 0.00123988 2.22128e-06 1.07295e-06 1.90526e-08 0.0005 1.46608e-07 
51 1 0.0190585 0.0175209 0.00747639 0.000538487 -0.0222742 0.00943592 -7.79974e-09 -8.84721e-09 1.75494e-08 0.0005 1.46608e-07 
52 1 0.0221472 0.0237069 0.013714 -0.0011599 -7.83702e-05 0.00135847 1.22221e-05 3.36981e-07 7.3038e-06 0.0005 1.46608e-07 
53 1 0.0273611 0.0228059 0.0134885 -0.000160766 0.0142659 -0.0223531 -2.14782e-09 -1.20167e-08 -7.00868e-09 0.0005 1.46608e-07 
54 1 0.0244853 0.0155544 0.00899107 0.00359096 -0.00775605 0.0142955 -3.59158e-09 -1.6784e-07 -1.65673e-07 0.0005 1.46608e-07 
55 1 0.0178695 0.0146244 0.0119838 0.00596236 -0.00152801 0.00102475 -5.91957e-07 1.93677e-07 -7.459e-08 0.0005 1.46608e-07 
56 1 0.0248298 0.0160098 0.0162111 -0.000120732 -0.00189119 0.0019511 5.42104e-08 -4.73172e-07 5.89643e-07 0.0005 1.46608e-07 
57 1 0.0173853 0.0233611 0.0142556 -0.0089865 -0.0166896 -0.0215539 0 0 -1.43822e-06 0.0005 1.46608e-07 
58 1 0.020665 0.0240765 0.0125611 -0.006196 -0.00624127 0.0040208 -7.3901e-09 3.13581e-08 -5.72996e-07 0.0005 1.46608e-07 
59 1 0.0265941 0.0231418 0.0100973 0.000263408 -0.00772481 -0.024032 -1.6937e-09 -1.49969e-08 -2.6024e-09 0.0005 1.46608e-07 
60 1 0.0217047 0.0212087 0.0170649 8.39718e-05 0.0231093 0.00254964 0 0 -1.43822e-06 0.0005 1.46608e-07 
61 1 0.0190123 0.0137052 0.0134598 0.000403637 -0.00100819 0.001718 4.92291e-07 -3.92271e-08 -4.85432e-08 0.0005 1.46608e-07 
62 1 0.0610421 0.0187951 0.0058864 6.09885e-15 2.72024e-14 1.94806e-13 -5.98879e-21 -2.11758e-22 -4.23516e-22 0.0005 1.46608e-07 
63 1 0.0172317 0.0228999 0.0151694 0.0248043 0.00397722 -0.00579834 0 0 -1.43822e-06 0.0005 1.46608e-07 
64 1 0.0239851 0.0185748 0.0169993 0.000718075 -0.00309384 0.00442015 0 0 -1.43822e-06 0.0005 1.46608e-07 
65 1 0.0209799 0.0209194 0.0164388 0.00876681 0.019523 -0.00846594 1.33796e-06 -5.58858e-06 1.47355e-06 0.0005 1.46608e-07 
66 1 0.0236856 0.0228997 0.015759 0.000512415 0.00126508 -0.000471804 1.1252e-05 -6.54101e-07 9.61976e-07 0.0005 1.46608e-07 
67 1 0.0192202 0.0184354 0.00723881 0.000117157 -0.0246616 0.00342964 -1.4472e-09 -5.60567e-09 1.69848e-08 0.0005 1.46608e-07 
68 1 0.0200038 0.0192685 0.0167412 -0.00138721 0.0236129 -0.000899399 -9.59152e-07 2.3352e-06 -3.16376e-08 0.0005 1.46608e-07 
69 1 0.0187759 0.0163345 0.00810287 0.00106662 -0.0165967 0.0137711 -2.78791e-09 2.76311e-09 2.10583e-08 0.0005 1.46608e-07 
70 1 0.0258621 0.020473 0.0170071 0.000102957 0.000282244 -0.00062304 2.89073e-08 1.73831e-08 8.60649e-07 0.0005 1.46608e-07 
71 1 0.0151597 0.020846 0.0166096 0.00714078 0.0166121 0.00819358 4.66876e-06 -3.71072e-06 2.69081e-06 0.0005 1.46608e-07 
72 1 0.0213506 0.0228879 0.0136461 0.00193488 0.0103943 -0.018355 9.78106e-06 -9.30411e-06 1.64198e-05 0.0005 1.46608e-07 
73 1 0.0190019 0.0236822 0.0151989 -0.00139508 -0.000937941 0.00322729 -4.67055e-06 1.01817e-06 -3.70343e-06 0.0005 1.46608e-07 
74 1 0.019425 0.024128 0.0127412 -0.000124828 0.000346856 -0.00958125 1.06708e-05 -4.10755e-07 5.87719e-07 0.0005 1.46608e-07 
75 1 0.0148656 0.0219862 0.0168369 0.0113764 -0.00306157 -0.0402505 0 0 -1.43822e-06 0.0005 1.46608e-07 
76 1 0.0218458 0.0217045 0.0150613 0.00520765 -0.000267331 -0.00122019 1.81942e-07 -1.91055e-06 8.89699e-07 0.0005 1.46608e-07 
77 1 0.0199057 0.0230902 0.0148701 0.00127229 0.00356956 0.00030875 8.20682e-07 3.45372e-06 -1.56603e-05 0.0005 1.46608e-07 
78 1 0.0222427 0.0229848 0.0148113 -0.010371 -0.000553497 0.00252647 -7.3216e-06 2.40774e-05 7.46545e-06 0.0005 1.46608e-07 
79 1 0.0209421 0.0146453 0.0163961 0.0076311 0.0103459 -0.0473045 1.89117e-06 1.31774e-06 1.88418e-06 0.0005 1.46608e-07 
80 1 0.0186269 0.024459 0.0137407 0.000195858 0.000409107 -0.00196024 -1.62505e-05 -2.96771e-07 6.61911e-06 0.0005 1.46608e-07 
81 1 0.0184173 0.0149677 0.013328 0.0008703 -0.000305638 0.00682537 8.12795e-07 1.3404e-07 8.45319e-07 0.0005 1.46608e-07 
82 1 0.0240193 0.0147607 0.0110593 0.000256419 -0.00356042 0.025197 -8.30887e-10 1.44268e-08 7.15605e-09 0.0005 1.46608e-07 
83 1 0.0158541 0.0217227 0.0150967 0.00381372 0.00781544 0.0034226 -1.90209e-07 -1.68184e-06 4.1072e-06 0.0005 1.46608e-07 
84 1 0.0236149 0.018117 0.0158328 -0.00079092 0.0252459 0.00428941 -1.11515e-06 1.0852e-05 -2.81195e-06 0.0005 1.46608e-07 
85 1 0.0270398 0.0223342 0.00869906 0.00382708 -0.0124299 -0.0138173 1.60659e-06 -2.65883e-06 -1.42826e-06 0.0005 1.46608e-07 
86 1 0.0157552 0.0234401 0.0152972 0.00158967 0.00332771 0.00182049 1.23649e-06 -2.79879e-07 7.41107e-07 0.0005 1.46608e-07 
87 1 0.0234373 0.0221519 0.0170527 -0.0012458 0.00252074 0.00143936 -2.95442e-07 -5.33789e-07 -1.40241e-06 0.0005 1.46608e-07 
88 1 0.0163287 0.0109222 0.024788 0.0385664 0.10935 -0.317594 0 0 -1.43822e-06 0.0005 1.46608e-07 
90 1 0.0216813 0.022375 0.0144245 -0.0205823 0.00179895 0.0027854 4.59471e-06 -2.6046e-06 2.87751e-05 0.0005 1.46608e-07 
91 1 0.0169336 0.0238156 0.0163786 0.00926097 0.00246781 -0.00279331 0 0 -1.43822e-06 0.0005 1.46608e-07 
92 1 0.0268156 0.0167895 0.0240621 -0.1373 -0.00735658 -0.325315 0 0 -1.43822e-06 0.0005 1.46608e-07 
93 1 0.0206211 0.0231898 0.0102511 0.000664935 -0.00859035 -0.0230679 -3.00019e-08 -8.32794e-08 -2.00277e-07 0.0005 1.46608e-07 
94 1 0.021224 0.0237062 0.0164406 0.00373056 -0.00127384 0.00284578 -3.33912e-08 5.17889e-07 -1.69392e-06 0.0005 1.46608e-07 
95 1 0.024945 0.0185097 0.0167134 -0.000424908 0.00551231 0.00107333 9.6964e-06 -4.22665e-05 -1.45238e-06 0.0005 1.46608e-07 
96 1 0.0205271 0.0229826 0.0165369 0.0232309 -0.0085166 -0.00455478 0 0 -1.43822e-06 0.0005 1.46608e-07 
97 1 0.0190788 0.0218988 0.0158922 0.00384255 -0.00419241 0.00712385 -1.82506e-06 4.85561e-06 2.43729e-06 0.0005 1.46608e-07 
99 1 0.025926 0.0185199 0.0167638 0.000190739 0.00251635 0.000884496 1.69901e-06 -2.08003e-05 -1.63994e-06 0.0005 1.46608e-07 
100 1 0.0178713 0.0213856 0.0171664 -0.000696805 0.0101275 0.010198 -1.38041e-06 -4.02385e-06 4.05426e-06 0.0005 1.46608e-07 
101 1 0.0251861 0.0217607 0.016731 0.000167677 0.000941152 0.000359499 8.82638e-08 3.28606e-07 -1.88705e-07 0.0005 1.46608e-07 
102 1 0.0178092 0.020499 0.0164652 -0.0176029 0.00437594 0.012932 -7.5191e-06 -1.01883e-05 5.44851e-06 0.0005 1.46608e-07 
103 1 0.0178129 0.0231436 0.0165723 0.0141865 0.0221208 0.031828 0 0 -1.43822e-06 0.0005 1.46608e-07 
104 1 0.0180114 0.0188459 0.0168489 0.00233588 0.0204876 0.00448392 -9.11313e-07 1.59725e-06 1.1291e-06 0.0005 1.46608e-07 
105 1 0.0161299 0.0214061 0.0170926 -3.8833e-05 0.0207926 9.10047e-05 6.77447e-06 1.74691e-06 -2.46623e-08 0.0005 1.46608e-07 
106 1 0.0231413 0.0225905 0.0141365 0.00261006 0.00196229 -0.00238597 1.00519e-05 -1.63462e-05 2.51702e-05 0.0005 1.46608e-07 
107 1 0.0172718 0.0240008 0.0130145 0.00142428 0.000956728 -0.00129769 8.93798e-07 -6.13378e-06 5.2696e-07 0.0005 1.46608e-07 
108 1 0.021105 0.0236811 0.0137742 -0.000198263 0.00545732 -0.00803516 9.97038e-06 -1.259e-06 -1.58687e-05 0.0005 1.46608e-07 
109 1 0.0175955 0.0156663 0.0155257 -0.00524572 -0.00617753 -0.0364777 0 0 -1.43822e-06 0.0005 1.46608e-07 
110 1 0.0210626 0.0146687 0.01439 0.00211178 -0.00493827 -0.005144 -7.77606e-08 -4.58165e-07 -5.87342e-07 0.0005 1.46608e-07 
111 1 0.0201759 0.0221437 0.00849781 0.000539155 -0.0113512 -0.0122119 3.09737e-09 -1.99491e-09 9.42502e-09 0.0005 1.46608e-07 
112 1 0.0200758 0.0145532 0.0159054 -0.00452985 0.0116621 -0.0266359 -1.75818e-06 4.59734e-07 3.64681e-07 0.0005 1.46608e-07 
113 1 0.0222658 0.0228293 0.0137905 -0.000617204 -0.0016605 -0.000449201 1.23812e-05 -5.48992e-06 1.41459e-05 0.0005 1.46608e-07 
114 1 0.0199121 0.0180746 0.00726931 0.000510025 -0.0243897 0.00501159 6.53545e-10 -1.62621e-09 1.29031e-08 0.0005 1.46608e-07 
115 1 0.0218565 0.0238516 0.0174484 0.0265036 0.00180615 0.0121201 0 0 -1.43822e-06 0.0005 1.46608e-07 
116 1 0.0149296 0.0231895 0.0147918 0.00502384 0.0024351 -0.00201951 -8.91623e-07 -4.64908e-07 1.52096e-07 0.0005 1.46608e-07 
117 1 0.02297 0.0212809 0.0153398 0.00179894 0.00952654 -0.0044937 2.75398e-05 -5.12346e-06 -5.56828e-06 0.0005 1.46608e-07 
118 1 0.0153202 0.0225538 0.0154576 0.00944036 0.00339093 -0.00345307 1.6863e-07 3.97205e-08 -2.48326e-07 0.0005 1.46608e-07 
119 1 0.0181135 0.0143925 0.0154182 -0.002551 -0.002481 0.0125492 1.4183e-05 -2.07206e-05 6.1349e-07 0.0005 1.46608e-07 
120 1 0.0176577 0.0236582 0.0156718 -0.000114106 0.00546046 0.0107946 0 0 -1.43822e-06 0.0005 1.46608e-07 
121 1 0.0243521 0.0223995 0.0160979 2.13753e-05 0.000506119 -0.000106058 5.60654e-06 1.58712e-06 7.65414e-07 0.0005 1.46608e-07 
122 1 0.0237166 0.0215046 0.0163436 0.00130206 0.00753281 -0.00300043 -5.81567e-08 2.74197e-07 -1.27946e-06 0.0005 1.46608e-07 
123 1 0.0239374 0.0210727 0.0154691 0.000355029 0.0189954 -0.00983172 1.0787e-05 -2.67892e-05 1.09701e-05 0.0005 1.46608e-07 
124 1 0.0157175 0.0236361 0.0178681 -0.00862013 -0.0039633 0.00801084 6.28278e-07 -2.49437e-07 -1.35521e-06 0.0005 1.46608e-07 
125 1 0.0232756 0.0157527 0.0144778 0.000331653 0.0148088 0.0154081 -1.7332e-06 1.66555e-06 -6.31642e-07 0.0005 1.46608e-07 
126 1 0.0198429 0.0139974 0.0129858 0.000114538 -0.000531451 0.00132066 5.37945e-07 -5.05268e-08 -1.1123e-07 0.0005 1.46608e-07 
127 1 0.0186657 0.0234032 0.0170406 0.0172638 0.0109718 0.00733278 2.58046e-07 3.39988e-07 2.71483e-06 0.0005 1.46608e-07 
128 1 0.0225486 0.0145176 0.0149645 0.000487132 0.000717168 0.000289433 1.17691e-08 -3.69705e-07 3.14881e-07 0.0005 1.46608e-07 
129 1 0.0230275 0.0198474 0.0165823 -0.000837181 0.0248774 -0.0129888 2.67358e-05 -8.64797e-05 -1.24227e-05 0.0005 1.46608e-07 
130 1 0.0233216 0.0178643 0.0167546 -0.00478472 0.00585411 -0.00184659 -4.6517e-07 2.23285e-06 5.12866e-06 0.0005 1.46608e-07 
131 1 0.0221581 0.0233882 0.0166146 -0.000420634 -0.000322927 0.0019298 9.08229e-07 9.07425e-07 -1.79269e-06 0.0005 1.46608e-07 
132 1 0.0177144 0.0174553 0.0156514 0.00017154 0.0114155 0.00380906 -5.84797e-09 -2.26561e-08 -6.56259e-09 0.0005 1.46608e-07 
133 1 0.0246998 0.0203927 0.0165855 -0.00595125 0.00800804 -0.00194174 2.47191e-07 1.0928e-06 -1.6048e-07 0.0005 1.46608e-07 
134 1 0.0193819 0.0210641 0.0163508 0.00982498 -0.00219645 0.00280351 2.25944e-06 -2.89332e-06 -2.35335e-06 0.0005 1.46608e-07 
135 1 0.02031 0.0240101 0.0161712 -0.000103316 -0.00172809 0.00303033 0 0 -1.43822e-06 0.0005 1.46608e-07 
136 1 0.0234818 0.014934 0.0150137 -0.00633697 -0.00236491 -0.00685047 -2.36236e-07 3.08203e-07 -1.00149e-06 0.0005 1.46608e-07 
137 1 0.0254131 0.0210353 0.0163056 -0.000117086 0.00303149 0.00113522 -2.00996e-07 7.0209e-07 -5.36125e-07 0.0005 1.46608e-07 
138 1 0.0213086 0.014213 0.0135337 -0.000429088 -0.000618526 0.00100354 -3.19562e-07 -3.28886e-07 -6.98757e-08 0.0005 1.46608e-07 
139 1 0.017486 0.0151492 0.0136436 0.0030833 0.00497288 0.0110187 4.11631e-07 -6.64241e-08 4.57208e-07 0.0005 1.46608e-07 
140 1 0.0190825 0.014228 0.0160157 -0.00736801 0.0122325 -0.0302378 5.85498e-07 -2.97641e-06 -9.15143e-07 0.0005 1.46608e-07 
141 1 0.0211799 0.0232314 0.0146676 0.00909837 -0.002205 -0.0228573 0 0 -1.43822e-06 0.0005 1.46608e-07 
142 1 0.0216878 0.0232912 0.0130156 0.0129642 0.0150177 -0.0142906 1.23046e-05 -2.28954e-05 2.34594e-05 0.0005 1.46608e-07 
143 1 0.0185422 0.0236825 0.0180116 0.0201643 0.00912249 -0.00337038 0 0 -1.43822e-06 0.0005 1.46608e-07 
144 1 0.01552 0.0199154 0.0167134 0.00567877 0.0128355 -0.00262947 -1.21172e-06 1.23893e-06 1.02558e-06 0.0005 1.46608e-07 
145 1 0.0259652 0.0213347 0.00794494 -5.31044e-05 -0.0210718 -0.0146824 -1.96808e-09 -1.33479e-08 9.56902e-09 0.0005 1.46608e-07 
146 1 0.0243648 0.0210227 0.0173308 -0.000225417 0.00275857 -0.00234677 -3.4998e-06 -1.60732e-05 1.17241e-05 0.0005 1.46608e-07 
147 1 0.018074 0.0138047 0.0137909 0.000657061 -0.00100291 0.00251139 -1.52597e-07 5.1077e-07 -5.1129e-07 0.0005 1.46608e-07 
148 1 0.018199 0.0223126 0.0156252 -0.011445 -0.0307809 0.0397106 0 0 -1.43822e-06 0.0005 1.46608e-07 
149 1 0.0196749 0.0232562 0.0158714 0.0100168 0.0113553 -0.0143455 0 0 -1.43822e-06 0.0005 1.46608e-07 
150 1 0.020651 0.0231033 0.0155441 -0.00354977 0.00205595 -0.00767196 0 0 -1.43822e-06 0.0005 1.46608e-07 
152 1 0.0171952 0.0141404 0.0134506 0.000538237 7.44344e-05 -0.000653545 1.57769e-07 -3.27824e-08 -8.45506e-10 0.0005 1.46608e-07 
153 1 0.0215395 0.0157333 0.0155923 0.00149574 0.00244038 0.00023374 4.77558e-07 -1.73011e-06 -2.97447e-07 0.0005 1.46608e-07 
155 1 0.0161652 0.0232114 0.0130648 0.00483064 0.0018754 -0.00371952 2.54924e-06 7.83912e-06 -1.30468e-05 0.0005 1.46608e-07 
156 1 0.0240286 0.021862 0.0178399 -0.00311719 0.007621 0.00636918 -2.40359e-07 -3.54204e-07 -9.79287e-07 0.0005 1.46608e-07 
157 1 0.0154327 0.0229546 0.0136441 0.00508081 0.0023753 -0.00296229 6.13284e-06 4.41004e-07 7.96038e-06 0.0005 1.46608e-07 
158 1 0.0208392 0.023391 0.0112342 0.00130163 -0.00195941 -0.0159041 7.38647e-08 -4.9658e-06 -1.398e-05 0.0005 1.46608e-07 
159 1 0.014185 0.0168934 0.0162842 -0.000648402 -0.00819133 -0.0038393 -2.40531e-10 -5.34566e-08 2.50183e-08 0.0005 1.46608e-07 
160 1 0.0153451 0.0146982 0.014445 0.00275804 -0.00035239 -0.00267823 -5.08039e-08 -5.31729e-07 -3.1644e-07 0.0005 1.46608e-07 
161 1 0.0230604 0.0222131 0.0156042 0.00323361 0.00347838 -0.00180889 2.65341e-05 -1.54375e-05 1.27154e-07 0.0005 1.46608e-07 
162 1 0.0220928 0.0224303 0.015684 0.00485672 -0.00352016 0.00418576 9.45844e-06 -6.62641e-06 -1.91405e-05 0.0005 1.46608e-07 
163 1 0.0190525 0.0155859 0.0143005 -0.00500246 0.014311 0.0245904 -7.63358e-07 1.96648e-05 6.16766e-06 0.0005 1.46608e-07 
164 1 0.0227544 0.0155816 0.0164757 0.00639368 0.00330724 -0.00369097 2.6776e-07 -1.34079e-07 -9.29993e-08 0.0005 1.46608e-07 
165 1 0.0258344 0.0175506 0.0169925 -0.00180631 0.000276058 -0.00387222 5.50809e-07 2.75952e-06 -9.5537e-07 0.0005 1.46608e-07 
166 1 0.0205541 0.0173003 0.0166858 -0.0130405 0.0141608 -0.0384967 -2.39411e-08 1.49829e-07 -1.03231e-06 0.0005 1.46608e-07 
167 1 0.0164936 0.0230631 0.0158562 0.0105356 0.0166746 0.00110979 -1.55831e-07 2.61057e-08 -1.45276e-06 0.0005 1.46608e-07 
168 1 0.0161687 0.0235006 0.016959 0.00492964 0.00695102 0.00218019 -6.58248e-07 1.73935e-06 1.29934e-06 0.0005 1.46608e-07 
169 1 0.0172096 0.0222659 0.0160216 0.00111701 0.00913973 -0.0122126 0 0 -1.43822e-06 0.0005 1.46608e-07 
170 1 0.0208807 0.0227997 0.00937551 3.24812e-05 -0.0119847 -0.0216002 4.38478e-09 -1.77315e-08 -1.0202e-08 0.0005 1.46608e-07 
171 1 0.0183274 0.0240174 0.0163222 0.0111546 0.00151857 0.0016146 -6.75683e-07 -1.65403e-06 -8.04335e-07 0.0005 1.46608e-07 
172 1 0.0141788 0.0227312 0.0152676 0.00283798 0.00444356 -0.00522605 2.82024e-07 2.01165e-06 -7.60894e-08 0.0005 1.46608e-07 
173 1 0.0126156 0.0179257 0.0159112 0.00542943 0.00427078 -0.0674189 0 0 -1.43822e-06 0.0005 1.46608e-07 
174 1 0.0243018 0.0176977 0.0166373 -0.00155942 -0.00938978 -0.00203484 -6.49343e-06 1.27163e-05 1.32962e-05 0.0005 1.46608e-07 
175 1 0.0244567 0.0185687 0.0159105 0.000970014 0.0186895 0.00312442 3.79926e-06 -1.38434e-05 1.27659e-06 0.0005 1.46608e-07 
176 1 0.0194742 0.0170463 0.0163448 -0.00336698 0.00384444 0.000570594 -1.61659e-08 -6.68794e-08 -1.06487e-09 0.0005 1.46608e-07 
177 1 0.022553 0.0186701 0.0159538 0.000375184 0.0245085 0.00106875 -2.77731e-07 -2.46518e-05 -1.32164e-05 0.0005 1.46608e-07 
178 1 0.0180933 0.0245931 0.0179003 0.00960379 0.0113584 0.0276467 2.8501e-08 -4.83953e-07 -1.4973e-06 0.0005 1.46608e-07 
179 1 0.0172636 0.0141805 0.0167066 0.00136247 0.00144849 -0.00341411 3.23029e-07 3.43264e-07 -7.06707e-07 0.0005 1.46608e-07 
180 1 0.0238214 0.0173737 0.0174685 -0.00765472 -0.00257882 -0.00718714 7.51988e-07 1.72559e-06 -6.18454e-07 0.0005 1.46608e-07 
181 1 0.0197658 0.0154765 0.0161318 -0.00535261 0.0115082 -0.0251993 -6.91723e-07 1.11839e-06 -8.75159e-07 0.0005 1.46608e-07 
182 1 0.0174371 0.018224 0.0163165 0.00224449 0.0197397 0.00386119 -1.58254e-06 1.12029e-06 4.54453e-07 0.0005 1.46608e-07 
183 1 0.0142366 0.021211 0.0164942 0.000201784 0.00253704 0.00591661 -3.57695e-06 -6.92245e-07 1.4314e-06 0.0005 1.46608e-07 
184 1 0.0167386 0.0214576 0.0155099 0.0154669 0.0123882 -0.0342446 -3.13591e-06 -1.3942e-05 4.91763e-06 0.0005 1.46608e-07 
185 1 0.0172942 0.0157181 0.0144432 0.00499286 0.00732586 0.00994814 4.99258e-07 8.47482e-07 3.99908e-07 0.0005 1.46608e-07 
186 1 0.0232968 0.0158249 0.0156712 0.00151466 0.00485476 -0.00968586 -2.39231e-07 -1.45493e-07 -3.15007e-07 0.0005 1.46608e-07 
187 1 0.0237353 0.0195191 0.0172137 -0.00020494 -0.00580805 0.00750811 0 0 -1.43822e-06 0.0005 1.46608e-07 
188 1 0.0183073 0.0151566 0.0160337 -0.00680052 0.00867078 -0.0109655 0 0 -1.43822e-06 0.0005 1.46608e-07 
189 1 0.0178995 0.0165513 0.0151731 -0.00250548 0.0102855 0.00658835 -3.85145e-07 6.10362e-08 -7.27621e-07 0.0005 1.46608e-07 
190 1 0.0162832 0.0143207 0.0138653 0.00228615 -0.00195157 0.000718817 8.67918e-08 -1.02081e-07 5.13796e-07 0.0005 1.46608e-07 
191 1 0.0176325 0.0242137 0.0170786 0.0139229 0.00948804 0.0164062 -1.18209e-06 -6.38741e-06 -6.39461e-06 0.0005 1.46608e-07 
192 1 0.0190688 0.0149921 0.0166606 0.00296137 0.00177682 -0.0231949 -7.49408e-07 3.84115e-06 -8.62491e-07 0.0005 1.46608e-07 
193 1 0.0165296 0.0188057 0.0159379 0.00055996 0.0244223 0.00143151 -3.35194e-10 2.60865e-09 -1.94169e-08 0.0005 1.46608e-07 
194 1 0.0203481 0.0142633 0.0138067 -0.000245189 -0.00243958 0.00232282 -3.05948e-07 -1.94641e-07 9.87255e-08 0.0005 1.46608e-07 
195 1 0.0192963 0.020105 0.0166188 0.0101021 -0.00199451 -0.000804716 1.18069e-06 -2.34686e-05 5.33338e-06 0.0005 1.46608e-07 
196 1 0.020475 0.0155462 0.0154088 -0.000853201 -0.0212861 -0.0206743 1.28008e-08 -3.58132e-07 -2.21986e-07 0.0005 1.46608e-07 
197 1 0.0202289 0.0144868 0.0149114 -0.0149239 -0.00305369 -0.0354442 0 0 -1.43822e-06 0.0005 1.46608e-07 
199 1 0.0192738 0.0148061 0.0128382 -0.000190135 -4.75194e-05 0.00457182 4.49e-07 -3.89503e-07 -6.57952e-07 0.0005 1.46608e-07 
200 1 0.0145269 0.0198 0.0167046 0.00586563 0.00766057 -0.000823207 2.43465e-07 -9.49253e-08 -1.22554e-06 0.0005 1.46608e-07 
201 1 0.0169375 0.0219786 0.0169467 0.00293063 0.0211201 0.00478665 4.25762e-06 -2.08231e-06 -1.76313e-06 0.0005 1.46608e-07 
202 1 0.0175962 0.0144677 0.0143671 0.000638234 -0.00205264 0.00406023 -1.39212e-07 4.08554e-07 -8.71617e-07 0.0005 1.46608e-07 
203 1 0.0170419 0.0211382 0.0164153 0.00142111 0.0248043 -0.00232614 7.30391e-06 -8.32009e-06 3.3062e-06 0.0005 1.46608e-07 
204 1 0.0237176 0.0219248 0.0148921 0.000198817 0.0209476 -0.017758 -2.09909e-08 3.11447e-07 -3.6924e-07 0.0005 1.46608e-07 
205 1 0.0194828 0.0153585 0.0151801 -0.0129203 -0.00863207 -0.0211915 1.20615e-06 -4.98458e-07 -1.81348e-06 0.0005 1.46608e-07 
206 1 0.0227332 0.0208953 0.0170236 -0.00766733 0.0302971 0.00581653 0 0 -1.43822e-06 0.0005 1.46608e-07 
207 1 0.0169634 0.01684 0.0153736 0.00116048 0.0198583 0.00988004 -6.03856e-08 -1.02557e-07 -9.82325e-07 0.0005 1.46608e-07 
208 1 0.0195441 0.0146983 0.0142123 -0.0148628 0.00327196 -0.0330644 -2.43584e-07 1.21786e-07 -1.02007e-06 0.0005 1.46608e-07 
209 1 0.0172491 0.0195958 0.0159133 0.000118768 0.0263766 -0.00298044 -2.32638e-08 5.63464e-06 -1.02991e-06 0.0005 1.46608e-07 
210 1 0.0162981 0.0198636 0.0160191 6.31744e-05 0.0270057 -0.00459096 -3.63056e-07 2.49986e-06 -4.62859e-07 0.0005 1.46608e-07 
212 1 0.0155918 0.0181267 0.0167083 0.00296077 0.00517957 0.000755509 1.44846e-07 -1.43306e-06 -5.47003e-06 0.0005 1.46608e-07 
213 1 0.0203178 0.0183121 0.0166956 0.000428582 0.0227176 0.00257627 -7.57609e-06 -5.7077e-06 -2.54176e-06 0.0005 1.46608e-07 
214 1 0.0178326 0.0212702 0.0153519 -4.44591e-05 0.0251699 -0.0145871 -1.81441e-09 1.64506e-07 -1.37457e-07 0.0005 1.46608e-07 
215 1 0.0135163 0.0217183 0.0160224 0.000310319 0.000610726 0.00225936 -5.06399e-06 -7.21802e-07 2.05229e-06 0.0005 1.46608e-07 
218 1 0.0185211 0.0132322 0.0179347 0.0298225 -0.00238537 -0.0191549 0 0 -1.43822e-06 0.0005 1.46608e-07 
219 1 0.0137092 0.0203666 0.0166059 0.00353688 0.00419363 -0.000479494 -2.79597e-06 3.62795e-06 2.67556e-06 0.0005 1.46608e-07 
220 1 0.0180112 0.0141637 0.0128598 0.00353099 -0.00146542 0.00179537 -9.45762e-07 2.08167e-07 -6.30742e-07 0.0005 1.46608e-07 
221 1 0.0222026 0.0194787 0.0170315 -0.00362111 0.0199543 -0.00744001 4.8199e-06 6.62554e-06 5.98803e-06 0.0005 1.46608e-07 
222 1 0.0188252 0.0244394 0.0171758 0.0169705 0.0148013 0.0178765 0 0 -1.43822e-06 0.0005 1.46608e-07 
223 1 0.0217076 0.0216164 0.0161511 0.00442791 -0.000991566 -0.00648926 0 0 -1.43822e-06 0.0005 1.46608e-07 
224 1 0.0194765 0.0135081 0.0177299 0.0280754 0.0158679 -0.0172118 -8.6199e-07 9.33846e-07 -4.48506e-07 0.0005 1.46608e-07 
225 1 0.0135778 0.0193858 0.0167505 0.0032346 0.00244594 -0.00249764 -8.18258e-08 5.72005e-07 -2.55377e-07 0.0005 1.46608e-07 
226 1 0.0224456 0.0153112 0.0155639 0.00141903 0.00319821 -0.00217529 4.85685e-08 3.00684e-07 -2.07284e-07 0.0005 1.46608e-07 
227 1 0.0164847 0.0155069 0.0154451 0.000552491 -0.0036458 0.00117078 -2.14916e-07 -1.26046e-06 2.35322e-06 0.0005 1.46608e-07 
228 1 0.0168693 0.0228961 0.0173378 0.00892548 0.0196626 0.0135082 7.3838e-07 9.82966e-07 -1.08411e-07 0.0005 1.46608e-07 
229 1 0.0238576 0.020073 0.0158343 0.00654261 0.0185334 -0.00490169 -1.19666e-06 9.5203e-07 1.92723e-06 0.0005 1.46608e-07 
230 1 0.0171157 0.0230918 0.0133253 0.00397835 0.00133269 -0.00235887 4.72064e-06 4.12901e-07 -2.70955e-07 0.0005 1.46608e-07 
231 1 0.0168444 0.0233915 0.0123903 0.00574702 0.000670757 -0.00525622 -2.25092e-05 -6.19055e-06 -5.39185e-06 0.0005 1.46608e-07 
232 1 0.0220127 0.0204475 0.0164927 0.000822548 0.0263314 -0.00776116 0 0 -1.43822e-06 0.0005 1.46608e-07 
233 1 0.024354 0.0194266 0.0164283 -0.00206433 0.0207539 -0.00942073 -1.29873e-07 1.08274e-08 -1.29056e-06 0.0005 1.46608e-07 
234 1 0.0246455 0.0198707 0.0174381 0.0129621 0.00194494 -0.0015726 0 0 -1.43822e-06 0.0005 1.46608e-07 
235 1 0.0190387 0.0144728 0.0150451 -0.0157898 -0.00495389 -0.0355976 -2.1807e-07 -6.42491e-07 -1.13101e-06 0.0005 1.46608e-07 
236 1 0.0186147 0.0176327 0.016073 -0.00463587 0.0198881 -0.0021352 1.92848e-06 -3.0291e-06 4.57196e-06 0.0005 1.46608e-07 
237 1 0.0200085 0.0244532 0.0170471 0.0265331 -0.00503182 0.0185752 -3.50959e-07 -3.5116e-07 -1.42392e-06 0.0005 1.46608e-07 
238 1 0.0234438 0.0190001 0.0162625 0.00187346 0.0315128 -0.0109904 -1.85003e-05 -1.55886e-05 -5.97222e-05 0.0005 1.46608e-07 
240 1 0.0249655 0.0194324 0.0182924 -0.00912434 0.00821048 -0.0128966 0 0 -1.43822e-06 0.0005 1.46608e-07 
242 1 0.0183817 0.0152344 0.0149521 -0.0107143 -0.000122842 0.0176048 1.32246e-05 1.31129e-05 -7.48512e-06 0.0005 1.46608e-07 
244 1 0.0129475 0.0209843 0.0164115 -4.88632e-05 0.00468017 0.00299799 4.68875e-06 2.83572e-05 8.64888e-06 0.0005 1.46608e-07 
245 1 0.0235032 0.0163329 0.0165073 0.00487721 0.0163702 -0.0174585 -9.05942e-08 8.75707e-07 -2.49875e-07 0.0005 1.46608e-07 
246 1 0.0238316 0.0163738 0.0174642 -0.0043197 -0.00143628 -0.00712559 1.73893e-06 2.54049e-06 5.07032e-06 0.0005 1.46608e-07 
247 1 0.017609 0.0234485 0.0177217 0.0163177 0.0101283 0.0180522 2.09259e-06 -1.88858e-06 3.70746e-06 0.0005 1.46608e-07 
249 1 0.0196722 0.0233623 0.0169475 0.013897 -0.00517322 0.00212223 0 0 -1.43822e-06 0.0005 1.46608e-07 
250 1 0.0166932 0.0221116 0.0147548 0.00208672 0.0216017 0.0131445 6.12498e-06 2.11808e-05 1.02115e-05 0.0005 1.46608e-07 
251 1 0.0164211 0.0227661 0.0139396 0.00476437 0.000417039 -0.00116438 -1.28014e-06 3.68177e-06 -6.96037e-06 0.0005 1.46608e-07 
252 1 0.0162975 0.0148467 0.0147156 0.00284403 -0.00203509 0.00105639 1.21567e-07 4.03223e-07 5.84235e-07 0.0005 1.46608e-07 
253 1 0.0219155 0.0147034 0.0166375 -0.000276292 -3.84564e-05 0.00093626 -4.32593e-08 3.9518e-07 1.12738e-06 0.0005 1.46608e-07 
255 1 0.0133214 0.0163291 0.0159127 0.0119798 0.00277661 -0.0253426 3.6768e-07 2.22854e-07 -9.00902e-07 0.0005 1.46608e-07 
256 1 0.0161347 0.0222692 0.0175973 0.0113838 0.0166925 0.00430901 -4.22678e-06 1.68292e-06 1.79729e-06 0.0005 1.46608e-07 