ITEM: TIMESTEP
5000000
ITEM: NUMBER OF ATOMS
241
ITEM: BOX BOUNDS ff ff ff
-0.02 0.43
-0.02 0.06
-0.02 0.07
ITEM: ATOMS id type x y z vx vy vz fx fy fz radius mass 
1 1 0.020585 0.0235848 0.0147615 0.000335444 0.000206388 -0.000281746 -8.06549e-07 -1.27138e-06 7.34314e-07 0.0005 1.46608e-07 
2 1 0.0222328 0.0178006 0.0157773 0.00332855 0.0121442 0.00238551 -2.7148e-08 7.40373e-08 3.04649e-08 0.0005 1.46608e-07 
4 1 0.0245919 0.0218263 0.0160083 0.00177228 0.00152184 -0.00352215 -7.36426e-06 -5.13372e-06 1.99466e-05 0.0005 1.46608e-07 
5 1 0.0188072 0.0229557 0.0162369 -0.00187536 0.00387896 -0.00332736 -1.2387e-07 7.90197e-07 -3.41917e-07 0.0005 1.46608e-07 
6 1 0.0161825 0.017992 0.0158611 0.00386395 0.0063588 0.00772956 -1.34499e-06 2.05578e-06 7.00585e-06 0.0005 1.46608e-07 
8 1 0.0290378 0.0150868 0.0129366 5.60255e-05 0.00789718 0.0241926 -1.54904e-09 1.56776e-08 -2.01637e-09 0.0005 1.46608e-07 
9 1 0.01959 0.0148028 0.0145755 -0.00372797 -0.000979315 -0.00233374 -1.3361e-07 -3.73165e-07 -3.03179e-07 0.0005 1.46608e-07 
11 1 0.0185834 0.0233942 0.0171072 -0.00124078 0.00155867 -0.00149717 -2.29735e-07 3.04782e-07 -5.08706e-07 0.0005 1.46608e-07 
13 1 0.0182005 0.0244074 0.0137883 0.000248849 4.75646e-05 -0.000276934 1.06283e-07 4.10639e-07 5.73607e-08 0.0005 1.46608e-07 
14 1 0.0240812 0.0179529 0.0158144 0.00213989 0.00688886 0.00319586 -8.85291e-08 4.43531e-07 9.13738e-08 0.0005 1.46608e-07 
15 1 0.0283062 0.017264 0.0153821 4.91667e-05 0.0233584 0.0120892 -9.31188e-10 1.24012e-08 -1.22878e-08 0.0005 1.46608e-07 
16 1 0.0166223 0.0222135 0.0148327 0.0056853 0.000256147 -0.00239092 -6.6801e-07 6.42322e-07 -3.66727e-06 0.0005 1.46608e-07 
17 1 0.0186731 0.0150355 0.0148997 -0.00675218 -0.00186113 -0.010329 3.92768e-07 -4.40788e-07 -9.7739e-07 0.0005 1.46608e-07 
18 1 0.0274082 0.0210794 0.0152955 0.00314029 0.0100089 -0.00537597 -1.72482e-05 -2.59802e-06 3.97026e-06 0.0005 1.46608e-07 
19 1 0.019455 0.0240896 0.0125964 -0.000798755 0.00114448 -0.00108604 -1.32732e-07 -3.57219e-09 7.34097e-08 0.0005 1.46608e-07 
21 1 0.0225705 0.023705 0.0143329 3.08433e-05 0.000260205 7.61553e-05 -2.47962e-06 3.52394e-07 1.13991e-06 0.0005 1.46608e-07 
22 1 0.0203687 0.0144632 0.0140272 -0.00294574 -0.00137274 -0.000625251 -7.99901e-06 -2.39029e-06 -6.86693e-06 0.0005 1.46608e-07 
23 1 0.0201016 0.0238383 0.0137495 0.000632949 0.00130396 -0.000981803 -3.86311e-07 3.45294e-07 -4.19895e-07 0.0005 1.46608e-07 
26 1 0.0198491 0.0230233 0.0161789 0.00040073 0.000961126 0.00172277 1.65956e-08 2.31701e-06 3.53047e-07 0.0005 1.46608e-07 
28 1 0.0179059 0.0189461 0.0160397 0.00475446 0.00373954 0.00811912 -2.9976e-06 1.08731e-05 -5.31399e-06 0.0005 1.46608e-07 
29 1 0.0166272 0.0142247 0.0135897 -0.00169879 0.00804984 -0.0206005 -2.6191e-06 1.22429e-07 1.32245e-06 0.0005 1.46608e-07 
30 1 0.020973 0.0242023 0.0140776 0.000439675 0.00043228 -0.000252739 -6.28641e-07 -1.41567e-06 1.896e-06 0.0005 1.46608e-07 
31 1 0.0228645 0.0210422 0.016631 -0.0105708 0.0315458 -0.0105904 0 0 -1.43822e-06 0.0005 1.46608e-07 
32 1 0.0202541 0.0227761 0.0152475 1.67411e-05 -3.67885e-05 -3.11594e-05 -8.27393e-07 -1.87749e-06 1.1482e-06 0.0005 1.46608e-07 
33 1 0.0294993 0.0147947 0.0110641 0.00179185 -0.000790186 0.00608398 -8.38693e-05 -0.000145295 2.35528e-05 0.0005 1.46608e-07 
36 1 0.0241728 0.0195863 0.0167158 -1.25346e-05 0.0288813 -0.00334526 -1.84673e-08 -7.45824e-09 -2.73764e-08 0.0005 1.46608e-07 
37 1 0.0230749 0.0236545 0.0151051 0.000171642 0.000188988 0.000247546 -1.8978e-06 -4.81755e-07 -2.65073e-08 0.0005 1.46608e-07 
38 1 0.154353 0.0180393 0.00580707 8.25192e-15 -2.33822e-14 1.89585e-13 4.08257e-19 -4.73809e-21 -2.05405e-20 0.0005 1.46608e-07 
40 1 0.0216298 0.0238373 0.0147467 -0.00252231 0.00481923 -0.00838778 0 0 -1.43822e-06 0.0005 1.46608e-07 
41 1 0.0171587 0.0242855 0.0140603 0.00117781 0.000315091 5.64526e-05 -8.37179e-07 9.36487e-08 4.01015e-07 0.0005 1.46608e-07 
42 1 0.0229155 0.0224391 0.0156491 0.00310495 0.00131427 -0.00250319 1.66593e-06 4.74217e-08 1.24318e-06 0.0005 1.46608e-07 
43 1 0.0184349 0.0240861 0.0128698 1.59863e-05 -0.00214192 -0.000289949 3.82257e-08 -2.10044e-09 -8.89368e-09 0.0005 1.46608e-07 
44 1 0.0139123 0.0206855 0.0165198 0.00679712 0.00501327 -0.00280165 -2.26694e-07 9.84954e-07 -3.07862e-07 0.0005 1.46608e-07 
45 1 0.0301298 0.0158629 0.00859579 0.00020434 -0.0174142 0.0182641 1.06508e-09 7.87278e-09 1.46097e-08 0.0005 1.46608e-07 
47 1 0.0261528 0.0232447 0.010381 0.000386423 -0.00623466 -0.0232931 -3.18858e-08 7.17748e-07 2.50561e-06 0.0005 1.46608e-07 
48 1 0.023147 0.0199945 0.0166901 -0.00221019 0.00925912 -0.00543226 -9.49006e-08 2.6269e-07 -2.93609e-07 0.0005 1.46608e-07 
49 1 0.0165424 0.0165374 0.0151691 0.00440545 0.00436143 0.0041311 2.42781e-08 -1.06285e-07 -4.98027e-08 0.0005 1.46608e-07 
50 1 0.0212601 0.0214991 0.0161196 -0.00269336 -6.11725e-05 0.00645186 -3.2974e-08 3.81011e-07 2.81115e-07 0.0005 1.46608e-07 
52 1 0.0218592 0.0238523 0.0137706 0.000406711 0.000960661 -0.000187718 -2.37757e-06 5.85331e-07 -8.79449e-07 0.0005 1.46608e-07 
53 1 0.0305435 0.0175013 0.00748575 0.000114821 -0.0244791 0.00854284 -1.61425e-09 -4.15835e-10 1.62909e-08 0.0005 1.46608e-07 
54 1 0.0286339 0.0160975 0.0146301 0.00179157 0.0062889 0.00689342 2.40243e-09 -3.51175e-08 -1.86034e-08 0.0005 1.46608e-07 
55 1 0.0168138 0.0239471 0.0168629 0.000360098 -0.00178333 -0.00310243 -9.67902e-06 -6.85315e-07 5.15636e-06 0.0005 1.46608e-07 
57 1 0.0224667 0.0168393 0.01536 0.00446384 0.0114901 0.0109153 0 0 -1.43822e-06 0.0005 1.46608e-07 
58 1 0.0232691 0.0216896 0.0150896 0.00517868 0.00279378 -0.00301235 -3.06403e-06 8.89516e-07 2.26695e-06 0.0005 1.46608e-07 
59 1 0.0296518 0.0149436 0.0103119 0.00533569 -0.00225651 -0.00132392 -4.16558e-06 -1.86232e-06 -8.72397e-09 0.0005 1.46608e-07 
61 1 0.0268099 0.0228778 0.0133775 0.00101807 0.0149368 -0.0208785 1.59672e-09 -2.07296e-08 -9.71988e-09 0.0005 1.46608e-07 
62 1 0.0610421 0.0187951 0.0058864 5.90184e-15 2.72436e-14 1.94807e-13 3.09498e-20 3.53372e-20 -5.29396e-21 0.0005 1.46608e-07 
63 1 0.0224193 0.0220819 0.0147412 0.00212507 0.0011847 0.000659005 -1.35723e-05 9.06031e-06 -8.15088e-06 0.0005 1.46608e-07 
66 1 0.023676 0.0230402 0.0153993 -6.97927e-05 0.000207806 0.000217949 6.98429e-07 -1.05722e-06 -1.43955e-06 0.0005 1.46608e-07 
67 1 0.0259144 0.0229133 0.00955277 0.00155546 -0.00920725 -0.0215637 -1.45541e-06 -6.32735e-08 2.1533e-07 0.0005 1.46608e-07 
70 1 0.0257672 0.0201321 0.0166551 -0.000398356 0.00268219 0.00179187 -1.14837e-07 -4.93121e-07 9.72832e-08 0.0005 1.46608e-07 
71 1 0.0165428 0.0205555 0.0158342 0.00532397 0.00357026 0.00285676 1.13784e-07 2.53373e-06 3.97827e-06 0.0005 1.46608e-07 
74 1 0.0203501 0.0240748 0.0128103 9.6318e-05 0.00125934 -0.00101117 2.3019e-08 -9.58224e-10 -4.16903e-07 0.0005 1.46608e-07 
75 1 0.0191826 0.022141 0.0166791 -0.00710133 0.0025625 -0.00101566 -4.89387e-07 9.41152e-07 -7.23838e-08 0.0005 1.46608e-07 
76 1 0.0165758 0.0212366 0.0171991 0.00464035 0.00953545 0.000564658 -9.34934e-08 -1.01043e-07 -1.04852e-06 0.0005 1.46608e-07 
77 1 0.0257517 0.0224413 0.00889421 0.00996446 -0.0245308 -0.0197797 -1.55e-06 1.76697e-06 -9.0544e-07 0.0005 1.46608e-07 
78 1 0.015319 0.019528 0.0167867 2.61096e-06 0.0292595 -0.0028571 4.31521e-08 1.54185e-08 -3.52746e-08 0.0005 1.46608e-07 
79 1 0.013916 0.0225312 0.0159955 0.00279527 0.00449601 -0.00146083 9.54776e-07 -1.83823e-06 1.94957e-06 0.0005 1.46608e-07 
80 1 0.0193155 0.0244281 0.0135668 4.89327e-05 0.000234859 7.88857e-05 -2.41145e-07 1.00271e-07 -5.7747e-07 0.0005 1.46608e-07 
81 1 0.0224721 0.0231314 0.0132657 -0.000950837 0.000919621 0.000574221 4.36346e-07 -1.87885e-07 -1.11326e-07 0.0005 1.46608e-07 
82 1 0.0269212 0.0234004 0.0111534 -5.02054e-05 -0.000435548 -0.0254999 7.76798e-09 -2.36776e-09 -3.1399e-08 0.0005 1.46608e-07 
83 1 0.0229563 0.0151994 0.0137432 0.00452962 0.00185054 0.00634643 -1.18634e-07 -1.86363e-07 -6.53882e-07 0.0005 1.46608e-07 
85 1 0.0308022 0.0185512 0.00717896 0.187542 0.733259 -1.5084 0.00777209 0.0189845 0.0489003 0.0005 1.46608e-07 
86 1 0.0169465 0.0229545 0.0141484 0.00139848 -0.010949 -0.03639 0 0 -1.43822e-06 0.0005 1.46608e-07 
88 1 0.0200427 0.0225526 0.0170396 -0.00344703 0.00334435 0.0041988 -1.45545e-07 7.35589e-07 3.00209e-07 0.0005 1.46608e-07 
92 1 0.0184834 0.0196603 0.0167136 -0.00299827 0.0229366 -0.00330157 2.09842e-07 4.0118e-07 -3.31914e-08 0.0005 1.46608e-07 
93 1 0.0252204 0.0212598 0.0161769 0.000287457 0.00122121 -0.000215864 6.06471e-07 -2.05087e-06 1.41675e-06 0.0005 1.46608e-07 
94 1 0.0218253 0.0227546 0.0143165 0.00326952 0.00306568 -7.30575e-05 -1.56638e-05 1.51381e-05 -8.88031e-06 0.0005 1.46608e-07 
95 1 0.020092 0.0140266 0.0130359 0.000108677 3.23011e-05 -0.000307581 -2.30344e-07 -3.38155e-07 -2.58981e-07 0.0005 1.46608e-07 
97 1 0.0209517 0.0240286 0.0184966 -0.105935 0.0826382 -0.00899228 0 0 -1.43822e-06 0.0005 1.46608e-07 
99 1 0.0136659 0.0215719 0.0161276 0.000453005 0.00314536 -0.00830479 -4.28621e-06 -3.05232e-08 -4.5827e-06 0.0005 1.46608e-07 
100 1 0.0214778 0.0230669 0.0133753 0.00245332 0.00335518 -0.00144612 -5.73523e-07 3.089e-06 -1.33018e-05 0.0005 1.46608e-07 
101 1 0.0257021 0.0210972 0.0168917 -0.000178602 0.00045507 5.61059e-05 6.98686e-07 -4.20077e-07 1.92774e-08 0.0005 1.46608e-07 
102 1 0.016672 0.0233628 0.0160627 0.000893541 -0.00115024 -0.0100066 0 0 -1.43822e-06 0.0005 1.46608e-07 
103 1 0.0243517 0.0168955 0.0153944 0.0106834 0.00240216 -0.000620374 -1.4821e-07 -2.12103e-07 -1.14609e-07 0.0005 1.46608e-07 
104 1 0.0188355 0.0141191 0.0145293 -0.00251316 -0.00134203 -0.0032895 8.1848e-07 -4.23303e-07 -1.05417e-06 0.0005 1.46608e-07 
105 1 0.0176781 0.0155117 0.0141888 -0.00198417 -0.0018306 -0.00537764 -3.30367e-06 5.82939e-06 5.2695e-06 0.0005 1.46608e-07 
106 1 0.0278743 0.0193224 0.0158224 0.000367773 0.0240402 -0.00169021 -4.95905e-07 -1.42731e-06 7.48131e-07 0.0005 1.46608e-07 
107 1 0.0217025 0.0156233 0.0155305 -0.000694208 -0.00089313 0.00276464 -5.37385e-08 -2.05027e-07 -1.11831e-07 0.0005 1.46608e-07 
108 1 0.021195 0.0239576 0.013134 0.000192444 0.000767099 -0.000232217 -3.58013e-07 6.95501e-07 -1.82621e-06 0.0005 1.46608e-07 
109 1 0.0212884 0.0200674 0.0167763 -0.0690261 -0.00896704 -0.00278658 0 0 -1.43822e-06 0.0005 1.46608e-07 
110 1 0.0223673 0.0212927 0.0153526 0.00822432 0.000649877 0.00139354 -3.77704e-06 4.41621e-06 -4.79467e-06 0.0005 1.46608e-07 
111 1 0.0184487 0.0237912 0.0157818 0.00068129 0.000313127 0.000936472 -1.51968e-06 -7.46472e-07 2.99646e-07 0.0005 1.46608e-07 
112 1 0.0203694 0.0218551 0.0164019 -0.00318044 0.0021808 0.00391445 -7.49218e-07 1.15207e-07 -2.28865e-06 0.0005 1.46608e-07 
113 1 0.0228964 0.0206708 0.0177691 0.000129155 -0.0616034 -0.0894829 0 0 -1.43822e-06 0.0005 1.46608e-07 
114 1 0.018821 0.024591 0.0175009 0.000306019 -6.89639e-05 -4.95908e-05 2.93598e-07 -2.51751e-07 -7.08042e-07 0.0005 1.46608e-07 
116 1 0.0172986 0.0240295 0.0131093 -1.77345e-05 -0.000662723 -9.96513e-05 -2.7664e-07 -8.40367e-09 4.20306e-07 0.0005 1.46608e-07 
119 1 0.0150378 0.0235489 0.0151756 0.00311056 0.00190117 -0.00517428 4.73019e-06 -1.29113e-06 1.04928e-05 0.0005 1.46608e-07 
120 1 0.017682 0.023674 0.0151513 0.00234845 0.000948048 -0.00138089 -2.59741e-07 8.16964e-07 -1.12478e-06 0.0005 1.46608e-07 
123 1 0.0242435 0.0226073 0.0159554 0.000143818 0.000471568 -0.000275586 -1.13752e-07 -1.51013e-06 1.42746e-06 0.0005 1.46608e-07 
124 1 0.0159063 0.022874 0.0164812 0.00224461 -0.0023452 -0.00691028 3.25422e-07 -2.79178e-07 -8.96064e-07 0.0005 1.46608e-07 
125 1 0.0177981 0.0229912 0.016574 0.00236778 0.000624573 0.00197982 9.32427e-07 -5.973e-07 -1.29176e-06 0.0005 1.46608e-07 
127 1 0.0182904 0.0218494 0.0170853 0.022443 0.0060323 -0.00856954 0 0 -1.43822e-06 0.0005 1.46608e-07 
128 1 0.0251295 0.0192816 0.0167264 5.51599e-07 0.0288883 -0.00119148 3.56376e-10 -8.22589e-10 -2.31273e-08 0.0005 1.46608e-07 
129 1 0.0142859 0.0228909 0.0151317 0.00143588 0.00603697 -0.00685338 -1.39987e-07 2.48129e-06 -6.07732e-07 0.0005 1.46608e-07 
134 1 0.0157963 0.0230913 0.0133575 0.00143991 0.00238421 -0.00016736 3.03074e-07 1.16966e-07 -8.33571e-07 0.0005 1.46608e-07 
135 1 0.0200131 0.0159525 0.0157415 -0.0037065 -0.000630566 -0.00548641 5.64756e-08 -2.72529e-07 -5.09479e-07 0.0005 1.46608e-07 
136 1 0.0235048 0.0149254 0.0150677 0.000555692 0.000619822 -0.000272022 -7.9127e-08 -4.63741e-07 1.77611e-07 0.0005 1.46608e-07 
137 1 0.0172999 0.0217787 0.0154179 0.00560291 0.00116224 -0.000976393 -1.34148e-06 3.70993e-06 -1.36803e-06 0.0005 1.46608e-07 
138 1 0.014654 0.0218568 0.0159808 0.00585323 0.00665194 -0.00371258 -1.59557e-06 -5.62991e-06 2.8825e-06 0.0005 1.46608e-07 
139 1 0.0236023 0.015635 0.0143698 0.00510395 0.0040266 0.00376584 1.21156e-07 1.47891e-07 -1.17162e-06 0.0005 1.46608e-07 
140 1 0.0206195 0.0185751 0.0176768 -0.0220855 -0.0718216 0.036078 0 0 -1.43822e-06 0.0005 1.46608e-07 
141 1 0.0233949 0.0147566 0.0115903 0.00110696 0.000213563 0.0208058 -1.03627e-09 5.19344e-09 -7.75719e-09 0.0005 1.46608e-07 
143 1 0.0195858 0.0234851 0.0170258 0.000275159 0.00129256 0.0015519 5.08784e-07 9.6495e-07 1.17786e-06 0.0005 1.46608e-07 
144 1 0.018095 0.0173443 0.0242192 -0.250507 -0.166497 0.246732 0 0 -1.43822e-06 0.0005 1.46608e-07 
145 1 0.0293461 0.0148105 0.0118219 0.001929 -0.00485889 0.0188584 0.000957177 0.00598409 -0.00196475 0.0005 1.46608e-07 
146 1 0.0167534 0.0157519 0.014498 0.00341174 0.00678671 0.00941307 -1.35269e-07 -3.69483e-07 -2.33478e-07 0.0005 1.46608e-07 
147 1 0.0184418 0.0159917 0.0147203 0.00428403 0.00303264 0.00298041 -5.82012e-07 -2.6795e-07 -1.31543e-07 0.0005 1.46608e-07 
149 1 0.0150185 0.0227769 0.0139242 0.00521907 0.00255262 -0.00218447 -9.9883e-07 -2.05252e-07 -3.34604e-07 0.0005 1.46608e-07 
150 1 0.0227787 0.0145557 0.0144876 -3.0373e-05 -0.00151072 0.00279409 -5.65833e-08 -3.3934e-08 -7.08443e-07 0.0005 1.46608e-07 
152 1 0.0207505 0.0210743 0.0173895 -0.00132031 -0.00154362 -0.00175058 0 0 -1.43822e-06 0.0005 1.46608e-07 
153 1 0.0212866 0.0229748 0.0151296 0.000552847 0.000411854 -0.00136819 -4.67678e-07 -1.93074e-06 3.04552e-06 0.0005 1.46608e-07 
155 1 0.0246746 0.0158267 0.0160429 0.0039593 0.00497068 0.00321846 5.76733e-07 6.31301e-07 -4.23094e-07 0.0005 1.46608e-07 
156 1 0.0209203 0.0241544 0.0173298 0.00065614 6.57354e-05 0.000957558 2.73378e-08 8.5165e-08 5.63918e-07 0.0005 1.46608e-07 
157 1 0.0214601 0.0228213 0.0168356 -0.0012293 0.00136908 0.00253082 7.15825e-08 5.48263e-08 7.89615e-07 0.0005 1.46608e-07 
158 1 0.0220191 0.0236254 0.0170379 -0.000660296 0.000925871 0.00264445 -2.30272e-07 -1.3537e-07 -6.55867e-07 0.0005 1.46608e-07 
159 1 0.0209581 0.0227689 0.0139491 0.00507073 0.00524004 -0.00263907 -9.08015e-06 1.38472e-05 -2.63087e-05 0.0005 1.46608e-07 
160 1 0.0211751 0.0147396 0.0145495 -0.00466258 -0.00283628 0.00120597 5.75643e-06 2.53499e-06 9.19021e-07 0.0005 1.46608e-07 
162 1 0.0229564 0.0155656 0.0156055 0.00199727 2.51445e-05 0.00134448 -7.66824e-07 -8.54132e-07 3.2271e-07 0.0005 1.46608e-07 
164 1 0.0181769 0.0182035 0.0166537 -0.00235385 -0.0361107 -0.0227041 0 0 -1.43822e-06 0.0005 1.46608e-07 
166 1 0.0167538 0.0195879 0.0160171 0.00498016 0.0041677 0.0131782 -3.13632e-06 4.37694e-07 1.11642e-06 0.0005 1.46608e-07 
167 1 0.0196423 0.023369 0.0145077 0.00126328 0.000600703 -0.000743162 -1.35695e-06 -9.66184e-07 8.3555e-07 0.0005 1.46608e-07 
169 1 0.0143277 0.0215552 0.0168768 0.00349311 -0.00265755 -0.0079444 4.28621e-06 3.05232e-08 1.70626e-06 0.0005 1.46608e-07 
170 1 0.0195253 0.0212653 0.0162758 0.00123762 0.000545288 3.52983e-05 -2.14188e-07 -1.14893e-07 -1.36897e-06 0.0005 1.46608e-07 
171 1 0.0205578 0.023411 0.016768 0.000824387 -3.12863e-05 0.00121033 -4.14069e-07 5.99451e-07 1.86172e-06 0.0005 1.46608e-07 
172 1 0.016373 0.0237214 0.0138555 0.000660852 0.00239635 -0.000614207 -9.47885e-07 1.719e-06 -1.52802e-06 0.0005 1.46608e-07 
173 1 0.0210333 0.014131 0.0133568 0.000795953 0.0016624 -0.00276643 -1.66718e-07 -5.92126e-09 -8.9963e-07 0.0005 1.46608e-07 
176 1 0.0163696 0.0214331 0.0153956 0.00567643 0.00104668 -0.00171986 -1.21433e-06 1.60823e-06 -6.88697e-08 0.0005 1.46608e-07 
177 1 0.0216035 0.0206988 0.0156285 0.000753841 0.00513648 -0.00125458 1.74615e-07 -8.53825e-07 3.35744e-07 0.0005 1.46608e-07 
178 1 0.0155536 0.0208924 0.0155531 0.00561904 0.001597 -0.000842467 -4.3528e-07 5.60773e-07 -1.25869e-07 0.0005 1.46608e-07 
180 1 0.0170319 0.0184772 0.0160261 0.00499626 0.00368233 0.00768652 -1.56255e-06 5.9426e-06 -2.36674e-08 0.0005 1.46608e-07 
181 1 0.0220137 0.0147754 0.0150929 -0.00382664 -0.00130337 -0.00120742 1.7975e-06 9.34775e-07 2.02983e-06 0.0005 1.46608e-07 
182 1 0.0212069 0.016334 0.0160377 -0.0116282 0.000469134 0.000928703 -4.77532e-10 -5.7254e-08 -1.10187e-07 0.0005 1.46608e-07 
183 1 0.0211154 0.0148127 0.015545 -0.00372031 -0.000421945 0.000229004 1.68717e-07 -5.37107e-07 5.25063e-07 0.0005 1.46608e-07 
184 1 0.0175006 0.0162384 0.0149508 0.00598841 0.00739777 0.00517972 -2.91692e-07 8.89451e-08 -1.00406e-06 0.0005 1.46608e-07 
187 1 0.021259 0.0218656 0.0170499 -0.00461462 0.00239969 0.00498443 3.21326e-07 8.84375e-07 -2.9451e-07 0.0005 1.46608e-07 
190 1 0.017487 0.0208541 0.0157237 0.00569384 0.00199708 0.00203581 -1.91079e-06 6.67266e-06 1.77524e-06 0.0005 1.46608e-07 
191 1 0.0235968 0.0148715 0.0105534 -3.29364e-05 -0.00798958 0.0223403 -2.44676e-08 3.35883e-08 -7.0362e-08 0.0005 1.46608e-07 
193 1 0.0182594 0.0167779 0.0153164 0.0045541 0.0019025 0.000577789 -1.0576e-07 -1.35466e-07 -5.94306e-08 0.0005 1.46608e-07 
194 1 0.0172813 0.0171318 0.0155241 0.00160545 0.00778022 0.00504955 -4.56069e-08 9.65221e-09 -7.83125e-08 0.0005 1.46608e-07 
195 1 0.0168686 0.0214269 0.0162622 0.00622264 0.0035669 -0.000980094 1.03576e-07 1.45188e-07 -1.72161e-06 0.0005 1.46608e-07 
197 1 0.0935581 0.0183371 0.00588747 1.06198e-14 1.89505e-14 2.48643e-13 -5.21322e-20 2.82962e-20 0 0.0005 1.46608e-07 
199 1 0.0276381 0.0153258 0.0274562 0.077672 -0.218536 0.400893 0 0 -1.43822e-06 0.0005 1.46608e-07 
201 1 0.0181032 0.0242473 0.0168956 -0.000343779 -0.000249914 7.58204e-06 2.71964e-08 -7.03727e-07 -5.8749e-07 0.0005 1.46608e-07 
204 1 0.118145 0.0201427 0.00585321 -1.1094e-15 -1.75108e-14 8.40191e-14 -3.98701e-20 1.85288e-21 -2.11758e-22 0.0005 1.46608e-07 
205 1 0.0264682 0.0233518 0.0119268 6.66771e-05 0.00328493 -0.0238268 2.30542e-08 -1.49083e-07 -1.72875e-07 0.0005 1.46608e-07 
206 1 0.0185103 0.0149419 0.0131962 0.00431933 -0.00230238 -0.00294694 7.4987e-07 -7.84109e-07 -2.90223e-06 0.0005 1.46608e-07 
209 1 0.0164526 0.0186255 0.0168279 0.00492009 -0.0016711 0.0083981 1.04979e-06 7.33519e-07 2.67494e-06 0.0005 1.46608e-07 
212 1 0.0159566 0.0226356 0.0142261 0.00501878 0.00168255 -0.00112565 -2.01585e-06 -5.52029e-07 -1.54818e-06 0.0005 1.46608e-07 
213 1 0.0188205 0.0205989 0.0165188 0.000139527 0.000780878 0.00321661 6.17431e-08 4.9155e-07 -1.64859e-06 0.0005 1.46608e-07 
214 1 0.018112 0.014621 0.0140554 -0.000450681 -0.00250362 -0.00602128 9.83644e-07 -1.45019e-06 2.08562e-06 0.0005 1.46608e-07 
215 1 0.0201869 0.0185094 0.0167268 -0.0135561 -0.00247688 -0.00725336 0 0 -1.43822e-06 0.0005 1.46608e-07 
218 1 0.0171801 0.0144709 0.014386 -0.00695859 0.00343949 -0.0154482 0 0 -1.43822e-06 0.0005 1.46608e-07 
219 1 0.0200177 0.0229635 0.00980095 0.00103282 -0.00972085 -0.0203262 2.61932e-07 6.55582e-07 9.75788e-07 0.0005 1.46608e-07 
221 1 0.0200645 0.0242543 0.0165549 0.000195499 -0.000483842 -0.000594029 -3.21398e-07 3.62974e-07 -9.42853e-07 0.0005 1.46608e-07 
222 1 0.0222504 0.0231379 0.0161961 0.00112941 -0.000901532 0.0024072 -3.1992e-07 5.24424e-08 4.10635e-08 0.0005 1.46608e-07 
224 1 0.0185456 0.0137803 0.0135521 -0.00187579 0.00190096 -0.00596237 4.04709e-07 7.93423e-07 -5.84877e-07 0.0005 1.46608e-07 
225 1 0.02257 0.0203985 0.0157508 0.00765287 0.00717502 -0.00151996 -8.09549e-06 5.13092e-06 6.81281e-06 0.0005 1.46608e-07 
226 1 0.0272049 0.0218781 0.0146341 0.000549362 0.017399 -0.0168315 -3.89652e-09 -3.54581e-09 -1.79133e-08 0.0005 1.46608e-07 
227 1 0.0214239 0.0220032 0.0148411 -0.0159652 -4.84411e-05 0.00672045 3.98885e-07 -6.52256e-07 -3.00924e-06 0.0005 1.46608e-07 
229 1 0.0280527 0.0182711 0.0157396 0.00107784 0.0242944 0.005036 -2.5055e-08 3.23551e-08 -2.46164e-09 0.0005 1.46608e-07 
230 1 0.0247645 0.0204409 0.0165633 -0.0114672 -0.0063933 0.00231036 0 0 -1.43822e-06 0.0005 1.46608e-07 
233 1 0.0185862 0.0215962 0.0160775 0.00551908 0.000190362 -0.00277711 -3.64594e-08 -4.18614e-07 4.35069e-07 0.0005 1.46608e-07 
234 1 0.0183432 0.0224044 0.0155411 0.00268083 0.000423201 -0.000574187 3.935e-07 -8.49167e-07 1.19726e-06 0.0005 1.46608e-07 
235 1 0.02417 0.0157734 0.0151813 0.00500908 0.00492895 0.00357427 -4.86741e-07 -5.19052e-07 -9.58781e-08 0.0005 1.46608e-07 
242 1 0.0197235 0.0201885 0.0166461 0.00134269 0.000309059 0.00319301 -1.6153e-08 2.06988e-07 -1.22476e-06 0.0005 1.46608e-07 
244 1 0.0158672 0.0238581 0.0147081 0.004605 -0.0013364 -0.0078353 -1.37433e-06 -1.46152e-06 5.88193e-07 0.0005 1.46608e-07 
245 1 0.0217394 0.0233435 0.0126193 -1.06464e-05 0.00153598 -0.000322524 1.12837e-06 1.19131e-06 -3.14034e-06 0.0005 1.46608e-07 
246 1 0.0185304 0.0174852 0.00748107 0.00200313 -0.0159139 0.00709586 -6.9513e-11 2.36845e-09 1.78188e-08 0.0005 1.46608e-07 
249 1 0.0181529 0.0142282 0.0125937 0.000516268 0.00115657 -0.00389711 4.10894e-08 5.11115e-07 -5.13313e-07 0.0005 1.46608e-07 
250 1 0.0250065 0.0195883 0.00720971 0.000604803 -0.021334 -0.00345519 2.60694e-09 1.71133e-08 2.11348e-08 0.0005 1.46608e-07 
252 1 0.021817 0.0197562 0.0158935 0.00357803 0.0114642 -0.00165395 -4.14766e-07 9.24341e-07 -1.0988e-07 0.0005 1.46608e-07 
253 1 0.0152232 0.022148 0.0146938 0.00485632 0.00279518 -0.000956667 9.20749e-07 -2.21052e-06 2.32743e-06 0.0005 1.46608e-07 
255 1 0.0175302 0.0238659 0.0161703 0.00241724 -0.00101739 -0.00329646 7.23574e-06 -2.91721e-06 -1.69642e-06 0.0005 1.46608e-07 
256 1 0.0194277 0.0142787 0.0137396 -0.00312557 0.000652317 -0.00365605 5.64901e-07 -6.02265e-08 2.89529e-07 0.0005 1.46608e-07 
257 1 0.0194435 0.0238758 0.0157343 0.000845953 -0.000117526 -0.000187972 -9.05447e-07 2.61672e-07 -4.78873e-08 0.0005 1.46608e-07 
258 1 0.0191228 0.0141018 0.0128014 0.000910182 0.00229539 -0.0037905 6.45727e-08 2.85735e-07 -3.09127e-07 0.0005 1.46608e-07 
259 1 0.0207626 0.022704 0.00921621 5.71079e-05 -0.00880194 -0.0144039 1.38639e-07 -6.41256e-07 -5.88046e-07 0.0005 1.46608e-07 
260 1 0.0175965 0.0140604 0.0134075 -0.00133787 0.00187229 -0.00629711 3.97646e-06 -2.97019e-06 -3.49562e-06 0.0005 1.46608e-07 
261 1 0.0220168 0.018778 0.0159484 0.00336961 0.0116117 0.00207508 -2.73948e-07 5.64946e-07 -1.39095e-07 0.0005 1.46608e-07 
263 1 0.0202367 0.0232768 0.0106283 0.00149116 -0.00448744 -0.0206586 -1.58012e-08 -8.62961e-08 4.74425e-07 0.0005 1.46608e-07 
264 1 0.0165263 0.0156864 0.0161298 0.0101323 -0.0281902 -0.0603897 0 0 -1.43822e-06 0.0005 1.46608e-07 
265 1 0.0203132 0.0152301 0.0151182 -0.00105455 -0.00148822 -0.00575206 -4.39307e-08 -3.60698e-07 -1.39664e-07 0.0005 1.46608e-07 
266 1 0.0184376 0.023094 0.0148234 0.00134625 0.000648441 -0.0010319 6.3478e-07 4.6403e-07 -4.25401e-07 0.0005 1.46608e-07 
267 1 0.0150172 0.0227712 0.0158032 0.00568116 0.00274339 -0.00348604 4.04033e-06 -5.16789e-06 9.8866e-06 0.0005 1.46608e-07 
268 1 0.0204397 0.0234431 0.0116247 0.000737685 -0.00137366 -0.0179707 -5.70463e-08 -6.81426e-08 -1.85127e-07 0.0005 1.46608e-07 
270 1 0.0138981 0.0186033 0.0167498 0.007308 0.0133599 0.00718493 0 0 -1.43822e-06 0.0005 1.46608e-07 
271 1 0.0218382 0.0143546 0.0139077 -0.00188549 -0.00200252 0.00233112 -8.02888e-07 6.89978e-08 7.12495e-07 0.0005 1.46608e-07 
272 1 0.0244275 0.0156826 0.020949 -0.0501226 0.0415768 -0.241596 0 0 -1.43822e-06 0.0005 1.46608e-07 
274 1 0.0221078 0.018624 0.0169322 0.00812832 -0.00632822 -0.000896811 1.84389e-07 1.05617e-07 -9.89495e-08 0.0005 1.46608e-07 
275 1 0.0174856 0.0146211 0.0119611 -0.00054654 0.00127228 -0.00307776 4.57844e-08 1.85019e-07 2.62505e-07 0.0005 1.46608e-07 
276 1 0.0176965 0.0199136 0.0159626 0.00567254 0.00319112 0.00646928 -3.59335e-06 8.61959e-06 -2.15365e-06 0.0005 1.46608e-07 
278 1 0.015778 0.019932 0.0159572 0.00423141 0.00563339 0.0044972 2.01891e-07 2.34422e-06 9.77672e-07 0.0005 1.46608e-07 
281 1 0.0173349 0.0227567 0.0152638 0.00434358 0.000741286 -0.00142949 -1.78992e-06 1.97636e-06 -4.00794e-06 0.0005 1.46608e-07 
283 1 0.0177082 0.0220356 0.0162938 0.00878918 -0.00086397 -0.000205091 5.44693e-08 -1.21114e-06 -1.20701e-06 0.0005 1.46608e-07 
284 1 0.0229963 0.0184626 0.0159073 -0.00122597 0.0092304 0.000846566 1.8896e-07 -3.7747e-06 1.03606e-06 0.0005 1.46608e-07 
285 1 0.0226705 0.0160497 0.0147786 0.00414515 0.00723172 0.00527145 5.47077e-08 1.53449e-06 -2.44435e-06 0.0005 1.46608e-07 
287 1 0.0236958 0.0199048 0.015859 0.00449571 0.0067887 -0.000877318 -2.8534e-07 1.30732e-06 -2.61059e-07 0.0005 1.46608e-07 
288 1 0.0234355 0.0165571 0.0151776 0.00378042 0.0114416 0.00819319 -9.15045e-07 5.3527e-08 3.02347e-07 0.0005 1.46608e-07 
290 1 0.0129373 0.0209445 0.0164024 0.00238388 0.00507772 -0.000229467 3.07536e-07 3.73378e-07 -3.50502e-07 0.0005 1.46608e-07 
291 1 0.0191797 0.0182878 0.0166963 -0.00527976 -0.022047 -0.00450522 2.24245e-08 2.43069e-07 1.41308e-07 0.0005 1.46608e-07 
292 1 0.0200282 0.0208201 0.00759064 0.000281736 -0.0223436 -0.00964548 -2.52415e-09 -1.26948e-08 8.6844e-09 0.0005 1.46608e-07 
294 1 0.0198158 0.0246658 0.0174317 0.000600849 -7.87838e-05 -0.000443715 2.8714e-07 -1.32428e-07 -1.05172e-06 0.0005 1.46608e-07 
295 1 0.0248125 0.0169952 0.0163176 0.00168913 0.00517795 0.00308249 2.02387e-09 7.53507e-09 2.21831e-08 0.0005 1.46608e-07 
296 1 0.0227831 0.0194392 0.015934 0.00247741 0.00793852 -0.0014941 6.75812e-06 -1.63001e-05 2.56958e-06 0.0005 1.46608e-07 
297 1 0.0276292 0.0202268 0.015661 0.00114875 0.0215086 -0.00629984 6.99958e-06 -4.59037e-06 8.51218e-06 0.0005 1.46608e-07 
298 1 0.0171655 0.0148149 0.0128885 0.00621057 0.00184081 -0.000747787 -8.65167e-08 -1.11161e-06 -4.14745e-07 0.0005 1.46608e-07 
300 1 0.0237128 0.0161005 0.0160228 0.00466253 0.00172729 0.00288582 2.94918e-07 -5.06058e-07 -2.93891e-07 0.0005 1.46608e-07 
301 1 0.0238948 0.018928 0.0159438 0.00522717 0.00390292 0.00114531 -1.91145e-07 7.72512e-07 8.48112e-08 0.0005 1.46608e-07 
302 1 0.0233721 0.0187647 0.0167838 0.00133096 0.00929646 -0.000862734 0 0 -1.43822e-06 0.0005 1.46608e-07 
303 1 0.0192747 0.0229581 0.015353 0.00168288 0.00307174 -0.00123341 -3.46121e-07 -4.06103e-07 1.32334e-07 0.0005 1.46608e-07 
304 1 0.0150442 0.0210337 0.0164019 0.00194875 0.0119165 -0.00467022 -9.85831e-08 1.09972e-06 -4.70951e-07 0.0005 1.46608e-07 
307 1 0.020442 0.0208595 0.0164628 0.00050498 0.00059735 -0.00238473 0 0 -1.43822e-06 0.0005 1.46608e-07 
308 1 0.0213395 0.023548 0.0161594 0.00115962 -5.32586e-05 0.00122658 8.97897e-07 -3.07146e-07 -1.54387e-06 0.0005 1.46608e-07 
312 1 0.0188353 0.0236635 0.0139959 0.000563989 0.000426886 0.000432064 4.06728e-07 5.58489e-07 -5.65164e-07 0.0005 1.46608e-07 
313 1 0.0218631 0.0222654 0.0158997 0.000653919 -0.00254105 0.00484614 3.29882e-07 -7.56985e-08 -1.19358e-07 0.0005 1.46608e-07 
314 1 0.0159798 0.0189567 0.0160116 0.00339673 0.0058076 0.00652375 -2.37208e-06 6.95144e-06 3.25909e-06 0.0005 1.46608e-07 
315 1 0.00842114 0.0323835 0.0435188 -9.72922e-317 -9.70169e-317 -1.69736e-12 0 0 0 0.0005 1.46608e-07 
316 1 0.026615 0.0227217 0.00919481 0.0050983 -0.0117758 -0.0149555 -1.57054e-05 -5.38045e-06 -2.60529e-06 0.0005 1.46608e-07 
317 1 0.0209079 0.0226423 0.0159937 0.00529773 -0.0102673 -0.00952434 0 0 -1.43822e-06 0.0005 1.46608e-07 
318 1 0.0189411 0.0192316 0.00715667 0.000259626 -0.0249222 -0.00164885 -2.84127e-09 -1.0296e-08 1.46727e-08 0.0005 1.46608e-07 
319 1 0.0246727 0.0181216 0.0166561 0.0154072 0.00995325 0.00204077 -2.79996e-07 1.24952e-07 2.73467e-08 0.0005 1.46608e-07 
320 1 0.0234766 0.0208357 0.0155667 0.0044507 0.00598411 -0.00271405 7.36077e-07 -2.72407e-08 -4.12497e-07 0.0005 1.46608e-07 
321 1 0.0231946 0.0175109 0.0156675 0.00187755 0.0077647 0.00252192 -6.55322e-08 1.10298e-07 -1.56917e-07 0.0005 1.46608e-07 
322 1 0.02111 0.0233703 0.0110861 0.000645899 -0.000947346 -0.011159 1.369e-08 2.2645e-08 7.43779e-08 0.0005 1.46608e-07 
323 1 0.0160496 0.0205398 0.0167043 0.00163811 0.00937382 0.00211935 0 0 -1.43822e-06 0.0005 1.46608e-07 
324 1 0.0204317 0.0237335 0.0157843 0.00109736 -0.00035776 0.000379373 6.4818e-07 2.32157e-06 8.36915e-07 0.0005 1.46608e-07 
325 1 0.0158518 0.0222246 0.0157222 -0.00131481 -0.00265423 -0.00639428 0 0 -1.43822e-06 0.0005 1.46608e-07 
326 1 0.0190562 0.0242139 0.016592 0.000201345 -3.07182e-05 -0.000520302 -7.9718e-07 -1.94036e-07 -1.40064e-07 0.0005 1.46608e-07 
327 1 0.0178845 0.02093 0.0166381 0.000451176 0.00442502 0.00358723 8.97672e-08 -2.39868e-07 -1.33443e-06 0.0005 1.46608e-07 
328 1 0.0196315 0.0221305 0.0157856 -0.00159997 0.00224223 0.00102023 -6.33552e-07 2.96294e-07 1.39898e-06 0.0005 1.46608e-07 
329 1 0.0483695 0.0188487 0.00601991 -8.527e-15 1.86106e-14 1.92616e-13 -2.67662e-19 -1.37802e-19 1.05879e-21 0.0005 1.46608e-07 
331 1 0.0152157 0.0222283 0.0168119 -0.0013394 0.00559014 0.000259355 0 0 -1.43822e-06 0.0005 1.46608e-07 
333 1 0.0193274 0.0211105 0.00775114 -2.30912e-05 -0.0215537 -0.0113218 -5.72578e-10 -1.46673e-08 7.04853e-09 0.0005 1.46608e-07 
334 1 0.0241246 0.0157999 0.00861185 0.00195149 -0.00812876 0.00785165 -2.31114e-08 7.21947e-08 4.41342e-08 0.0005 1.46608e-07 
335 1 0.0158393 0.0144832 0.014163 0.00252523 -0.0020411 0.000235648 7.35679e-08 -4.74059e-08 -1.39599e-08 0.0005 1.46608e-07 
336 1 0.0178404 0.0235651 0.0141748 0.000684646 -0.000103575 -0.00111203 3.51941e-07 3.07305e-07 -1.56197e-06 0.0005 1.46608e-07 
337 1 0.0161298 0.0230754 0.0152722 0.000463674 -0.00286735 -0.0084188 2.33484e-06 -1.41869e-06 4.01411e-07 0.0005 1.46608e-07 
338 1 0.0245525 0.0175792 0.00744471 3.31693e-05 -0.0247316 0.00704388 4.45481e-10 2.23371e-09 1.33993e-08 0.0005 1.46608e-07 