# vtk DataFile Version 3.0
LIGGGHTS particles timestep 15000000
ASCII
DATASET POLYDATA
POINTS 127 float
0.036539 0.0218316 0.00813918
0.0283132 0.0156298 0.0088534
0.0286556 0.0166491 0.00792385
0.0205563 0.0140544 0.0131906
0.0257229 0.0203493 0.0165981
0.0411908 0.0190155 0.00715258
0.0228623 0.0234592 0.0143587
0.0208856 0.0231084 0.0132545
0.0386977 0.0162894 0.00672003
0.0321071 0.0199424 0.00590196
0.0308379 0.0233486 0.011965
0.0379761 0.0199301 0.0156991
0.0213076 0.0149775 0.0136183
0.0378039 0.0204523 0.0155893
0.0143531 0.0201458 0.0158061
0.0374838 0.021934 0.0144521
0.0318062 0.0206239 0.0154307
0.0204221 0.022152 0.0146853
0.0165201 0.019817 0.00593552
0.0662017 0.0188213 0.00577467
0.0188914 0.0234726 0.0120065
0.0302113 0.0228047 0.00927788
0.0216948 0.0147404 0.0115749
0.039467 0.0148434 0.0123026
0.0258447 0.0204377 0.0156092
0.0362288 0.0227935 0.00941813
0.0353583 0.0197415 0.00738933
0.0421477 0.0225675 0.00900573
0.029886 0.0219005 0.00822896
0.119071 0.0203608 0.0059107
0.0239664 0.0213419 0.0162313
0.0252612 0.0180948 0.00607594
0.015233 0.0152773 0.0138634
0.0369601 0.0232485 0.0125391
0.0311007 0.0228423 0.0134804
0.0976912 0.0174781 0.00629452
0.0224395 0.0233221 0.0122066
0.0222293 0.0154195 0.00917215
0.0324579 0.0179691 0.0156372
0.0268357 0.0162857 0.0147891
0.0203007 0.0234718 0.0117217
0.0271098 0.0156227 0.0141017
0.0219205 0.0232642 0.0146346
0.0330052 0.0158182 0.0143701
0.0277222 0.0147589 0.0113955
0.0377191 0.0177416 0.00611137
0.0447899 0.0195866 0.0182594
0.0212068 0.0239634 0.0131265
0.0172347 0.0240387 0.0131478
0.0213436 0.0140346 0.0139491
0.0398129 0.0148196 0.0110316
0.0185832 0.0140167 0.0129427
0.0205553 0.0177285 0.0157501
0.040686 0.018503 0.00594174
0.0409498 0.0180609 0.00730276
0.0360353 0.0223148 0.00870334
0.0219391 0.0237886 0.0137811
0.0127674 0.0183091 0.00588303
0.0310498 0.0190829 0.00571978
0.0879807 0.0206636 0.00600115
0.0420076 0.0187879 0.00579333
0.0273531 0.0149845 0.0128251
0.0402614 0.0155972 0.00905085
0.0346455 0.00899128 0.0435188
0.0175577 0.0178541 0.0166238
0.0131048 0.0211985 0.0163238
0.0270753 0.0191463 0.00600101
0.0327507 0.0165685 0.0150103
0.0414604 0.0201021 0.00730716
0.0849179 0.0182538 0.00577769
0.0356794 0.0214998 0.00798419
0.0320692 0.0195245 0.0158068
0.0191529 0.0232944 0.0106543
0.0214789 0.0208322 0.0155686
0.0212708 0.0226798 0.0140716
0.0223105 0.0149623 0.0132403
0.0357793 0.0213725 0.0435188
0.0385239 0.0184863 0.00585491
0.0219538 0.0148746 0.0104111
0.0240286 0.0223004 0.00882428
0.034182 0.0153457 0.00927777
0.0540291 0.0190025 0.00594807
0.0159341 0.0149549 0.0132274
0.0403892 0.0171846 0.00644451
0.0273869 0.023018 0.00972294
0.018492 0.0241487 0.0131168
0.0356453 0.0220817 0.00827216
0.0166615 0.0142953 0.0134163
0.0365219 0.0233329 0.0107962
0.035124 0.0174285 0.0061681
0.0183667 0.0230862 0.0102326
0.033978 0.0149356 0.0103092
0.021518 0.0147574 0.0126659
0.0204949 0.02374 0.0125955
0.0280267 0.0150458 0.00994721
0.0383613 0.0184592 0.0156604
0.0355738 0.0208074 0.0076935
0.0176254 0.0141329 0.0132055
0.033757 0.0148172 0.0112598
0.0137523 0.0191876 0.00580989
0.0265467 0.0172772 0.0153609
0.0160337 0.0236062 0.0140768
0.0363527 0.0156585 0.0141627
0.0185502 0.0233636 0.0110729
0.0279162 0.0208618 0.00599849
0.0291223 0.018754 0.00717642
0.0193582 0.0226441 0.0141393
0.0202786 0.0227714 0.0139135
0.0191099 0.0231697 0.0133368
0.00296456 0.0113601 0.0435188
0.0232509 0.0192434 0.00720396
0.0333507 0.0150241 0.0129014
0.0392228 0.0153062 0.0135877
0.0288606 0.0176721 0.00740938
0.0314844 0.0220265 0.014614
0.0361075 0.0190157 0.00582284
0.0370626 0.0168423 0.00641347
0.0219175 0.0213631 0.00638861
0.0360441 0.0249743 0.0435188
0.0199517 0.0233242 0.0131653
0.0195826 0.0140008 0.0129692
0.0748406 0.0197444 0.00579981
0.0194398 0.0239906 0.0126962
0.026114 0.0198481 0.00594898
0.00758099 0.0189521 0.00570394
0.0257118 0.0210509 0.0153277
0.0208158 0.020007 0.00602666

VERTICES 127 254
1 0
1 1
1 2
1 3
1 4
1 5
1 6
1 7
1 8
1 9
1 10
1 11
1 12
1 13
1 14
1 15
1 16
1 17
1 18
1 19
1 20
1 21
1 22
1 23
1 24
1 25
1 26
1 27
1 28
1 29
1 30
1 31
1 32
1 33
1 34
1 35
1 36
1 37
1 38
1 39
1 40
1 41
1 42
1 43
1 44
1 45
1 46
1 47
1 48
1 49
1 50
1 51
1 52
1 53
1 54
1 55
1 56
1 57
1 58
1 59
1 60
1 61
1 62
1 63
1 64
1 65
1 66
1 67
1 68
1 69
1 70
1 71
1 72
1 73
1 74
1 75
1 76
1 77
1 78
1 79
1 80
1 81
1 82
1 83
1 84
1 85
1 86
1 87
1 88
1 89
1 90
1 91
1 92
1 93
1 94
1 95
1 96
1 97
1 98
1 99
1 100
1 101
1 102
1 103
1 104
1 105
1 106
1 107
1 108
1 109
1 110
1 111
1 112
1 113
1 114
1 115
1 116
1 117
1 118
1 119
1 120
1 121
1 122
1 123
1 124
1 125
1 126

POINT_DATA 127
SCALARS id int 1
LOOKUP_TABLE default
1
4
6
12
13
15
16
17
18
19
21
25
26
28
30
31
32
33
35
36
37
40
41
42
49
51
52
53
54
56
58
62
65
66
68
71
74
75
77
78
79
80
82
84
89
90
91
93
98
101
102
105
106
107
108
110
114
116
119
121
122
123
125
128
133
134
136
137
139
141
142
146
148
152
154
155
156
157
158
159
162
163
169
171
172
174
176
178
182
185
192
196
197
198
202
204
206
208
212
214
217
224
225
229
230
232
239
240
244
248
249
256
258
260
261
263
265
266
267
271
272
275
278
281
290
295
296

SCALARS type int 1
LOOKUP_TABLE default
1
1
1
1
1
1
1
1
1
1
1
1
1
1
1
1
1
1
1
1
1
1
1
1
1
1
1
1
1
1
1
1
1
1
1
1
1
1
1
1
1
1
1
1
1
1
1
1
1
1
1
1
1
1
1
1
1
1
1
1
1
1
1
1
1
1
1
1
1
1
1
1
1
1
1
1
1
1
1
1
1
1
1
1
1
1
1
1
1
1
1
1
1
1
1
1
1
1
1
1
1
1
1
1
1
1
1
1
1
1
1
1
1
1
1
1
1
1
1
1
1
1
1
1
1
1
1

SCALARS radius float 1
LOOKUP_TABLE default
0.0005
0.0005
0.0005
0.0005
0.0005
0.0005
0.0005
0.0005
0.0005
0.0005
0.0005
0.0005
0.0005
0.0005
0.0005
0.0005
0.0005
0.0005
0.0005
0.0005
0.0005
0.0005
0.0005
0.0005
0.0005
0.0005
0.0005
0.0005
0.0005
0.0005
0.0005
0.0005
0.0005
0.0005
0.0005
0.0005
0.0005
0.0005
0.0005
0.0005
0.0005
0.0005
0.0005
0.0005
0.0005
0.0005
0.0005
0.0005
0.0005
0.0005
0.0005
0.0005
0.0005
0.0005
0.0005
0.0005
0.0005
0.0005
0.0005
0.0005
0.0005
0.0005
0.0005
0.0005
0.0005
0.0005
0.0005
0.0005
0.0005
0.0005
0.0005
0.0005
0.0005
0.0005
0.0005
0.0005
0.0005
0.0005
0.0005
0.0005
0.0005
0.0005
0.0005
0.0005
0.0005
0.0005
0.0005
0.0005
0.0005
0.0005
0.0005
0.0005
0.0005
0.0005
0.0005
0.0005
0.0005
0.0005
0.0005
0.0005
0.0005
0.0005
0.0005
0.0005
0.0005
0.0005
0.0005
0.0005
0.0005
0.0005
0.0005
0.0005
0.0005
0.0005
0.0005
0.0005
0.0005
0.0005
0.0005
0.0005
0.0005
0.0005
0.0005
0.0005
0.0005
0.0005
0.0005

SCALARS mass float 1
LOOKUP_TABLE default
1.46608e-07
1.46608e-07
1.46608e-07
1.46608e-07
1.46608e-07
1.46608e-07
1.46608e-07
1.46608e-07
1.46608e-07
1.46608e-07
1.46608e-07
1.46608e-07
1.46608e-07
1.46608e-07
1.46608e-07
1.46608e-07
1.46608e-07
1.46608e-07
1.46608e-07
1.46608e-07
1.46608e-07
1.46608e-07
1.46608e-07
1.46608e-07
1.46608e-07
1.46608e-07
1.46608e-07
1.46608e-07
1.46608e-07
1.46608e-07
1.46608e-07
1.46608e-07
1.46608e-07
1.46608e-07
1.46608e-07
1.46608e-07
1.46608e-07
1.46608e-07
1.46608e-07
1.46608e-07
1.46608e-07
1.46608e-07
1.46608e-07
1.46608e-07
1.46608e-07
1.46608e-07
1.46608e-07
1.46608e-07
1.46608e-07
1.46608e-07
1.46608e-07
1.46608e-07
1.46608e-07
1.46608e-07
1.46608e-07
1.46608e-07
1.46608e-07
1.46608e-07
1.46608e-07
1.46608e-07
1.46608e-07
1.46608e-07
1.46608e-07
1.46608e-07
1.46608e-07
1.46608e-07
1.46608e-07
1.46608e-07
1.46608e-07
1.46608e-07
1.46608e-07
1.46608e-07
1.46608e-07
1.46608e-07
1.46608e-07
1.46608e-07
1.46608e-07
1.46608e-07
1.46608e-07
1.46608e-07
1.46608e-07
1.46608e-07
1.46608e-07
1.46608e-07
1.46608e-07
1.46608e-07
1.46608e-07
1.46608e-07
1.46608e-07
1.46608e-07
1.46608e-07
1.46608e-07
1.46608e-07
1.46608e-07
1.46608e-07
1.46608e-07
1.46608e-07
1.46608e-07
1.46608e-07
1.46608e-07
1.46608e-07
1.46608e-07
1.46608e-07
1.46608e-07
1.46608e-07
1.46608e-07
1.46608e-07
1.46608e-07
1.46608e-07
1.46608e-07
1.46608e-07
1.46608e-07
1.46608e-07
1.46608e-07
1.46608e-07
1.46608e-07
1.46608e-07
1.46608e-07
1.46608e-07
1.46608e-07
1.46608e-07
1.46608e-07
1.46608e-07
1.46608e-07
1.46608e-07
1.46608e-07
1.46608e-07

VECTORS velocity float
-1.36664 0.338362 0.0897681
-0.000401099 -0.0115746 0.0110464
0.000805923 -0.0185993 0.0140877
0.000237154 -0.000662166 0.00165081
-0.0046289 0.0165442 0.00109112
0.000200827 -0.0255758 -0.000707895
-0.00883962 0.00660345 -0.00834288
0.00386204 0.000961709 -0.00313657
6.07192e-15 -3.82633e-14 -1.01638e-13
7.13532e-16 2.01851e-14 -6.87788e-14
0.000817191 0.00207683 -0.0242523
0.00380877 -0.000310835 0.00519316
0.00534935 0.00169446 0.00308076
0.00237526 0.0110514 -0.00694193
1.14258e-10 0.0233416 -0.00598052
0.000196364 0.0198669 -0.0176551
0.000476467 0.022538 -0.00925438
-0.00430006 0.00563245 -0.00452759
1.30232e-14 5.2591e-15 -1.07337e-13
3.37608e-16 -7.4216e-16 -1.33903e-14
0.00541412 0.000831251 -0.0166635
0.00105923 -0.00934925 -0.0172121
0.00113027 0.000181234 0.021765
-2.64455e-05 0.00347742 0.0262503
0.00301733 0.00585151 0.00049559
0.0265626 -0.0394815 -0.0312228
-1.79995e-05 -0.0254577 -0.0049523
0.000488552 -0.0131051 -0.0229534
0.00013926 -0.0191872 -0.0177316
1.09455e-15 2.46963e-14 -1.19876e-13
-1.10139e-08 0.0262206 -0.0125469
-2.63651e-14 -5.33942e-14 -1.75212e-13
0.00407975 0.00289387 0.00691212
4.28081e-05 0.00718604 -0.0251013
0.000711007 0.0144896 -0.0218523
-1.90223e-15 -7.3016e-14 -2.20718e-13
3.66207e-05 0.00422539 -0.0246661
0.000213535 -0.0137894 0.0211754
0.00128324 0.0185079 0.00451963
0.00149491 0.0163807 0.0120653
0.000364488 0.00115004 -0.00212612
0.000565047 0.0132756 0.0208534
-0.00408913 0.00877972 -0.00766477
0.00300526 0.0107255 0.0153908
0.00132762 -0.000404403 0.0197587
9.32863e-16 -8.55091e-15 -2.18645e-14
2.33597e-15 -1.50096e-15 -4.87691e-14
0.00132979 0.000248369 -0.00058399
6.48652e-06 0.000788744 -0.000682388
-0.0071634 -0.00176071 -0.00537864
0.00257153 0.00197941 0.0170395
0.000442734 0.00144539 -0.00235106
0.000624976 0.0232745 0.00706694
9.42495e-16 -8.55043e-15 -2.18643e-14
0.000530562 -0.022628 0.0059509
-0.545637 -0.178889 -0.530668
0.000772231 0.000813311 -1.88655e-05
-2.80667e-15 3.01337e-16 -3.14894e-14
-1.71285e-14 1.4747e-16 -2.00935e-13
-1.56039e-14 -2.86478e-14 1.89153e-13
-4.4593e-15 1.30659e-14 7.16614e-14
0.000175629 0.00768268 0.0238221
0.000284311 -0.0150384 0.0206799
9.7006e-317 -9.75154e-317 -8.23806e-13
7.56178e-08 0.0283386 0.00658727
0.0107588 0.0140641 -0.00636216
1.09629e-14 1.75683e-15 -1.78715e-13
0.000671391 0.0130359 0.010162
0.000542156 -0.022758 -0.00511604
-4.79847e-16 1.50256e-14 5.18897e-14
-0.384756 0.768208 -0.016473
0.00115527 0.0204323 -0.00309008
0.00316013 -0.00392585 -0.0151873
-4.11651e-09 0.0220663 -0.00964972
0.00459624 0.00320381 -0.00276298
0.00504185 0.00135743 0.00354177
-9.69384e-317 9.51613e-317 -3.87031e-13
9.44048e-16 -8.55108e-15 -2.1864e-14
-5.16334e-06 -0.00629315 0.024224
0.00155193 -0.00951374 -0.0121964
6.12274e-06 -0.0142412 0.0217941
-7.72163e-15 -1.92535e-14 -2.54264e-13
-0.000771112 0.000444637 0.00274871
9.42867e-16 -8.55024e-15 -2.18643e-14
0.0170732 -0.00809486 -0.0188277
-0.0280043 -0.0240468 -0.0494301
2.37987 -3.23429 1.88249
0.000282297 0.000442315 -0.00108938
0.000756391 -0.00363244 -0.0190434
5.12814e-16 6.79977e-15 1.99805e-14
0.00352739 -0.00482324 -0.0133393
0.000366192 -0.00563223 0.0225497
0.00529704 0.00174501 0.00304847
0.00689144 0.000208012 -0.00429132
0.000132045 -0.00956721 0.0237977
-0.00104502 0.0242253 0.00526497
0.0516531 0.038206 0.0362084
-0.000107733 0.00242395 -0.00463853
2.64546e-05 -0.00258285 0.0259162
4.41147e-15 -6.71159e-16 5.00272e-14
-0.000332087 0.0196185 0.00893976
0.00542474 0.00163964 -0.00483581
-4.1273e-05 0.0156666 0.0221174
0.00319511 -0.00344812 -0.0160099
3.07421e-15 1.79646e-14 -5.71333e-14
0.00187188 -0.0199079 0.00227481
0.000353699 0.0124671 -0.0157305
0.0016731 0.00387894 -0.00630841
0.000698431 0.00678643 -0.019541
-9.73893e-317 -9.68349e-317 2.45201e-12
0.00150626 -0.0212785 0.00190466
0.000610822 0.00732875 0.0184761
0.000685622 0.0108513 0.0179188
0.000323524 -0.0245749 0.00745952
0.00152602 0.0153722 -0.013395
-1.32204e-15 -1.45879e-14 5.5878e-14
4.79576e-15 -2.9941e-14 -7.95718e-14
-0.0748393 -0.124508 -0.0703428
-9.68005e-317 -9.73691e-317 2.01523e-12
0.00371295 0.000210053 -0.0093305
0.00032726 -0.000715859 0.00110543
5.95788e-15 3.1917e-14 -1.2817e-13
-0.000877299 -4.90982e-05 -0.00176098
9.3802e-16 1.48853e-16 -1.5292e-14
9.6601e-16 1.40101e-16 -9.75996e-15
0.00146614 0.0119114 -0.00973356
-6.32455e-15 2.77452e-15 -5.78025e-14

VECTORS force float
-0.0274924 0.0197143 0.00542348
-2.23579e-08 1.27328e-08 -1.48404e-08
-1.14414e-08 -1.72155e-08 2.24221e-08
-1.19629e-07 -3.08185e-08 3.49444e-09
0.0 0.0 -1.43822e-06
-2.24011e-09 -8.19346e-09 1.60844e-08
-1.0978e-07 7.38245e-08 -1.2163e-07
1.57606e-06 8.73908e-07 -1.36521e-05
3.5353e-19 -3.53636e-20 3.49401e-20
-4.65057e-20 5.82335e-22 -2.11758e-22
-8.97529e-08 2.72564e-08 -2.54402e-06
1.88173e-07 -3.09229e-08 -1.61528e-07
-5.6516e-08 -5.02307e-08 2.65909e-08
-3.44731e-07 -7.72385e-09 -2.0476e-07
6.38065e-16 -4.72318e-09 -1.82365e-08
-1.57442e-09 -5.44087e-09 -1.45816e-08
-5.92252e-09 5.33124e-09 -1.66014e-08
-6.02842e-07 -8.01733e-07 8.28976e-07
-5.32043e-21 2.98579e-20 6.35275e-22
1.26674e-19 3.08902e-20 -2.11758e-22
4.03946e-07 -9.48857e-07 4.83419e-07
8.75277e-09 -1.57957e-08 1.14128e-08
-5.08697e-09 1.58704e-08 1.4135e-08
-7.25498e-10 1.74325e-08 3.85245e-09
1.73905e-06 -2.9029e-07 -6.22166e-07
0.000861015 -0.00309736 -0.00161469
4.19531e-10 -7.88228e-09 1.4357e-08
-1.18075e-05 -9.54484e-06 -3.65926e-06
-8.6545e-10 -1.99837e-08 5.21642e-09
1.1746e-22 0.0 0.0
-3.98687e-14 -9.94177e-09 -2.10666e-08
3.82329e-19 -3.59883e-19 5.35748e-20
1.40601e-09 -2.52492e-08 -4.04642e-08
-1.97014e-09 -1.37937e-08 -1.48519e-08
2.47974e-08 -2.33042e-08 -1.69519e-08
-5.88754e-20 -7.94093e-22 1.05879e-21
8.68516e-10 -1.31309e-08 -1.59998e-08
-2.36764e-09 3.97487e-09 1.80112e-08
-3.52858e-09 3.63346e-08 -6.6942e-09
-3.37572e-08 3.08086e-08 1.3633e-08
1.31476e-05 6.45383e-07 -5.39096e-06
-2.86197e-07 5.51053e-08 5.44111e-07
9.50926e-08 8.65936e-07 -1.50735e-06
1.82534e-08 -3.19403e-08 -5.65283e-08
5.70305e-09 1.44456e-08 -6.51066e-09
8.99311e-21 -2.32934e-21 1.48231e-21
7.67624e-22 2.4286e-21 -2.11758e-22
-3.87599e-06 -2.57927e-06 -1.07411e-05
1.16666e-10 1.48189e-08 -1.39276e-08
-9.70455e-08 -4.45121e-08 -2.89548e-08
-0.0518171 -0.177218 -0.0128275
-4.3153e-08 7.09824e-08 -1.32664e-07
-1.93539e-10 6.25873e-09 -1.81102e-08
-1.4029e-21 -4.23516e-22 2.11758e-22
-6.14095e-09 -1.80884e-08 1.76453e-08
0.0628575 -0.0174403 0.00612231
1.03428e-05 -2.60358e-06 1.05604e-05
-1.51884e-19 -5.6641e-19 4.44692e-21
-6.88214e-22 -7.49624e-20 0.0
-1.41468e-19 1.69407e-20 -7.19978e-21
-1.57495e-21 0.0 0.0
-1.15039e-09 1.73389e-08 3.51602e-09
-4.47629e-09 5.43716e-09 1.4006e-08
0.0 0.0 0.0
1.95624e-14 5.8585e-09 -2.52238e-08
2.96882e-09 5.53515e-09 -7.8815e-10
-1.79995e-21 1.08675e-20 2.11758e-22
8.36745e-09 -2.19177e-08 -1.09339e-08
-4.12402e-09 -1.78069e-08 5.41062e-09
4.64727e-20 3.70577e-22 2.11758e-22
0.0442158 -0.0110969 -0.0674939
-3.66275e-09 2.17673e-08 -1.80731e-08
-9.99527e-06 -1.55705e-05 -2.57701e-05
-7.6317e-15 -7.54077e-09 -1.72512e-08
1.78291e-07 -1.38444e-06 2.21645e-06
-9.10811e-11 -9.37115e-09 2.11808e-08
0.0 0.0 0.0
1.23084e-21 5.29396e-22 0.0
1.39082e-09 1.14416e-08 1.39675e-08
-5.38755e-09 -1.49094e-09 3.06681e-08
-1.05141e-09 9.26039e-09 1.55185e-08
0.0 1.32349e-23 0.0
3.54524e-08 -1.51427e-08 1.34904e-08
-2.94476e-21 0.0 -4.23516e-22
-0.000509168 -2.95454e-05 -8.80648e-05
1.90323e-07 -3.57356e-07 -8.85006e-07
3.44074 0.110018 -1.93639
3.61947e-08 1.61767e-08 -9.89127e-08
5.57297e-09 -1.29143e-08 8.76765e-09
-2.58597e-19 7.33742e-20 -1.77877e-20
-1.26559e-06 5.08142e-06 4.51307e-06
-7.83857e-10 1.23222e-08 1.4245e-08
-1.70275e-08 -2.25361e-08 2.39192e-08
-8.13117e-06 -1.94575e-05 -1.7125e-05
-6.63609e-10 9.4765e-09 1.64609e-08
-7.93716e-09 1.39219e-08 -3.78374e-08
0.000883301 -1.74208e-05 0.00239091
-3.43731e-08 8.97855e-08 -2.66515e-07
-1.66791e-09 1.50012e-08 8.04282e-09
5.29396e-19 6.81398e-19 -3.66342e-20
-6.95053e-09 4.37064e-08 -3.44452e-09
-1.93066e-08 2.66999e-09 3.43133e-08
-3.94636e-10 1.66862e-08 -6.85968e-09
3.49608e-06 -2.74383e-07 -3.91698e-06
-8.52327e-21 -3.81165e-21 -1.69407e-21
-1.07774e-08 -2.99602e-08 1.80423e-08
3.35509e-06 3.72203e-06 7.23932e-07
6.40818e-06 4.06156e-06 -4.24898e-06
1.39992e-06 5.37941e-06 -3.67471e-06
0.0 0.0 0.0
1.00519e-08 -8.05609e-08 3.35341e-08
-1.89283e-08 1.05139e-07 1.41377e-07
-4.93007e-09 3.49108e-08 2.2557e-08
-1.88006e-09 -5.00071e-09 1.83334e-08
8.59439e-09 -2.52913e-08 -7.62658e-09
5.27132e-19 -5.32995e-19 -1.11808e-19
1.52201e-21 -1.16467e-21 4.23516e-22
0.0 0.0 -1.43822e-06
0.0 0.0 0.0
3.82355e-06 3.04776e-06 -7.78555e-06
-8.21868e-08 6.34563e-09 2.22675e-08
-4.77382e-20 -9.13737e-20 -2.92226e-20
-1.76922e-05 -2.9478e-07 7.70084e-06
8.86738e-22 -7.54389e-22 0.0
-1.53525e-21 -1.97564e-20 -4.23516e-22
-3.83257e-07 2.53878e-07 5.58087e-09
4.34898e-20 1.36584e-19 1.90582e-21
