# vtk DataFile Version 3.0
LIGGGHTS particles timestep 6000000
ASCII
DATASET POLYDATA
POINTS 212 float
0.0280188 0.0174904 0.0154665
0.0196611 0.0191099 0.0214559
0.0242269 0.0223761 0.0155386
0.0211748 0.0237959 0.0125579
0.0169476 0.0166202 0.0237389
0.0205955 0.0147481 0.0155142
0.0292705 0.0147614 0.0112447
0.016109 0.0242417 0.0187053
0.0247525 0.0204652 0.0190853
0.0304209 0.0178236 0.00736803
0.0273406 0.0212474 0.00611936
0.0232199 0.0147419 0.01154
0.0208291 0.02328 0.0105982
0.0237809 0.0182093 0.0172474
0.0184849 0.023901 0.0132282
0.020967 0.0231283 0.0165142
0.0290644 0.0147855 0.0118829
0.0205187 0.0242017 0.0133635
0.0301187 0.00699082 0.0447104
0.0270116 0.0219304 0.0145829
0.0177531 0.0240604 0.0127731
0.0265761 0.0229954 0.0131681
0.0204098 0.0234518 0.0125214
0.0166979 0.0229014 0.013716
0.0218139 0.0189307 0.0160331
0.0165201 0.019817 0.00593552
0.0662163 0.0189336 0.00576827
0.021598 0.0162899 0.0163905
0.0160366 0.0234806 0.0145087
0.0224008 0.0237544 0.0142357
0.0219242 0.0149246 0.0148385
0.0240374 0.021366 0.019893
0.0284818 0.0160124 0.014526
0.0167582 0.0152607 0.0138506
0.0198761 0.0150769 0.0149024
0.0186403 0.0146233 0.0119355
0.0259522 0.0232457 0.0103636
0.0247307 0.0191331 0.00719866
0.030652 0.0188249 0.00717224
0.0208726 0.0234 0.0115307
0.119071 0.0203608 0.0059107
0.0192204 0.0214163 0.00791779
0.0184663 0.0244817 0.0137968
0.023508 0.0157734 0.0145185
0.0252612 0.0180948 0.00607594
0.0188658 0.0176656 0.0165669
0.0184562 0.0179032 0.00730425
0.0272586 0.0210357 0.0153343
0.0236553 0.0232019 0.0102583
0.0246463 0.020783 0.0164523
0.0153047 0.0235447 0.015314
0.0219301 0.0229724 0.0192561
0.0976912 0.0174781 0.00629452
0.022494 0.0160998 0.0148233
0.0229302 0.0179044 0.0158087
0.0138033 0.0207504 0.0171213
0.0221812 0.0172819 0.0155823
0.0169657 0.0239498 0.0133783
0.0209445 0.0140559 0.013401
0.0166048 0.0142173 0.0136244
0.0182597 0.0211501 0.0163122
0.0205962 0.0230835 0.0132093
0.0182906 0.0298176 0.0304737
0.0167407 0.0204622 0.0157222
0.0208693 0.0149259 0.0129139
0.0242958 0.0173505 0.00753012
0.0193687 0.0166531 0.0151538
0.0174357 0.0141299 0.0165697
0.0356392 0.0194318 0.00590914
0.0447899 0.0195866 0.0182594
0.0188512 0.0241132 0.0125622
0.0172501 0.0148692 0.0158544
0.017589 0.0146234 0.0119354
0.0212253 0.024181 0.0141469
0.0218028 0.0237828 0.0135149
0.0220461 0.0156055 0.0158147
0.0286649 0.0155456 0.0138994
0.0199997 0.0222502 0.0086471
0.0249891 0.0215951 0.0159802
0.0176186 0.0140173 0.0135104
0.0391138 0.0186413 0.00581976
0.02963 0.0151952 0.00960212
0.0237126 0.0172241 0.0165041
0.0226645 0.0236073 0.0151958
0.0176869 0.0154732 0.0141541
0.0130122 0.0189679 0.00587174
0.022102 0.0228616 0.0137848
0.0274287 0.0201905 0.015683
0.0178338 0.0175526 0.0156808
0.0228935 0.0223613 0.0144351
0.0187032 0.0225671 0.0167679
0.02367 0.0223286 0.017893
0.0294905 0.0149325 0.0104027
0.0234343 0.0148452 0.0106525
0.0346455 0.00899128 0.0435188
0.0176011 0.0242643 0.0141108
0.0186939 0.0192339 0.0167458
0.0237255 0.0154748 0.00902418
0.0184853 0.0231851 0.0147313
0.026443 0.0205511 0.00597611
0.0219709 0.022233 0.0145991
0.0202432 0.0237908 0.0119054
0.0300211 0.0161264 0.00832219
0.0826994 0.0191069 0.00591647
0.0130804 0.00824835 0.0340925
0.0219135 0.0143639 0.0139695
0.0232741 0.0194581 0.0175257
0.0231482 0.023265 0.0144911
0.0210469 0.0146446 0.0143822
0.023507 0.0149653 0.0186001
0.0301839 0.0234808 0.033136
0.0238507 0.0130307 0.0256609
0.0175165 0.0198128 0.0158894
0.0213015 0.0137685 0.0181304
0.0357793 0.0213725 0.0435188
0.0126415 0.0199103 0.0166933
0.0190427 0.0138586 0.0132052
0.0175301 0.0163781 0.0160994
0.0210247 0.022245 0.0146505
0.0240873 0.0162895 0.00821045
0.0191868 0.0155763 0.0154272
0.0160083 0.018035 0.0158418
0.0268541 0.0242302 0.0340774
0.0167886 0.0148627 0.0147674
0.0232523 0.0223635 0.015888
0.0166466 0.0195017 0.016272
0.0170913 0.0214586 0.0152469
0.0215805 0.0206558 0.0171138
0.0214161 0.0208716 0.0158047
0.0194923 0.0191765 0.0071477
0.0195585 0.0231665 0.0148003
0.0249313 0.0183808 0.00724672
0.0189468 0.0146441 0.0157083
0.0262494 0.023383 0.0114669
0.0239272 0.017979 0.0158258
0.0173622 0.0233734 0.0144744
0.0227107 0.0154031 0.0140388
0.0152392 0.017327 0.016497
0.0134268 0.0216097 0.0161156
0.021982 0.0175405 0.0165275
0.0200004 0.0140337 0.0129767
0.020141 0.0143669 0.0139084
0.0257791 0.0193868 0.0167457
0.0228095 0.014542 0.0145471
0.027898 0.0183341 0.0157361
0.0241642 0.0156861 0.015268
0.0189596 0.0202603 0.00737641
0.0230915 0.0216957 0.0151615
0.0128632 0.0208545 0.0164501
0.018771 0.0192716 0.00719595
0.0171534 0.0187074 0.015937
0.0204813 0.0164447 0.0165343
0.0139102 0.0223378 0.0156298
0.0181878 0.0166677 0.00789859
0.0228822 0.0150712 0.0156094
0.019441 0.0242664 0.0133619
0.0187699 0.0230063 0.0134316
0.0277344 0.0191033 0.0158459
0.0166971 0.0241205 0.0143256
0.0237372 0.0166637 0.0152462
0.0143824 0.0232037 0.0154661
0.0248496 0.0175247 0.0181424
0.0190272 0.0240105 0.0144898
0.0192344 0.0146055 0.0142976
0.0178692 0.0165354 0.0151718
0.0185029 0.0142774 0.0148905
0.0208704 0.0231782 0.0142803
0.0177599 0.0149392 0.0149964
0.0200553 0.015975 0.0157559
0.0235477 0.0231882 0.0154058
0.0198571 0.0143892 0.0161212
0.0151369 0.0232195 0.0145032
0.0245127 0.015667 0.00881053
0.0233411 0.02115 0.0159864
0.0180188 0.0142362 0.0157644
0.0186317 0.015288 0.0138845
0.0199196 0.0237197 0.0140476
0.0165114 0.0160407 0.0147685
0.0157887 0.0191042 0.0159463
0.0158005 0.0144938 0.0141951
0.0199389 0.02137 0.00787102
0.0223379 0.0212681 0.0158112
0.0232579 0.0234942 0.0191338
0.0284931 0.0166359 0.0150186
0.0157586 0.0224493 0.0143645
0.0202631 0.0209296 0.018987
0.0258408 0.0183769 0.0167132
0.0200607 0.0195955 0.0167358
0.025216 0.0217734 0.0167287
0.0228359 0.0213958 0.0178013
0.0166121 0.0232106 0.0158215
0.0170481 0.0144327 0.0127543
0.0147767 0.0226965 0.0139368
0.0252985 0.0171404 0.016394
0.0182014 0.0141725 0.0127128
0.0214093 0.0231618 0.0130236
0.0204498 0.0196775 0.0204593
0.0227471 0.01922 0.0159971
0.0254447 0.0196741 0.0194109
0.0235933 0.0150772 0.00981304
0.0164551 0.023296 0.0128197
0.0172577 0.0157392 0.0153616
0.0249515 0.0165306 0.0352158
0.0231058 0.0189243 0.0257819
0.0191442 0.0191309 0.0158589
0.0235716 0.0197448 0.0160262
0.0185399 0.0222186 0.015678
0.0157153 0.0230574 0.0134486
0.0197623 0.0228538 0.00954165
0.0164922 0.0168489 0.0153595
0.0239425 0.0216632 0.0166064
0.0210811 0.0156255 0.015519

VERTICES 212 424
1 0
1 1
1 2
1 3
1 4
1 5
1 6
1 7
1 8
1 9
1 10
1 11
1 12
1 13
1 14
1 15
1 16
1 17
1 18
1 19
1 20
1 21
1 22
1 23
1 24
1 25
1 26
1 27
1 28
1 29
1 30
1 31
1 32
1 33
1 34
1 35
1 36
1 37
1 38
1 39
1 40
1 41
1 42
1 43
1 44
1 45
1 46
1 47
1 48
1 49
1 50
1 51
1 52
1 53
1 54
1 55
1 56
1 57
1 58
1 59
1 60
1 61
1 62
1 63
1 64
1 65
1 66
1 67
1 68
1 69
1 70
1 71
1 72
1 73
1 74
1 75
1 76
1 77
1 78
1 79
1 80
1 81
1 82
1 83
1 84
1 85
1 86
1 87
1 88
1 89
1 90
1 91
1 92
1 93
1 94
1 95
1 96
1 97
1 98
1 99
1 100
1 101
1 102
1 103
1 104
1 105
1 106
1 107
1 108
1 109
1 110
1 111
1 112
1 113
1 114
1 115
1 116
1 117
1 118
1 119
1 120
1 121
1 122
1 123
1 124
1 125
1 126
1 127
1 128
1 129
1 130
1 131
1 132
1 133
1 134
1 135
1 136
1 137
1 138
1 139
1 140
1 141
1 142
1 143
1 144
1 145
1 146
1 147
1 148
1 149
1 150
1 151
1 152
1 153
1 154
1 155
1 156
1 157
1 158
1 159
1 160
1 161
1 162
1 163
1 164
1 165
1 166
1 167
1 168
1 169
1 170
1 171
1 172
1 173
1 174
1 175
1 176
1 177
1 178
1 179
1 180
1 181
1 182
1 183
1 184
1 185
1 186
1 187
1 188
1 189
1 190
1 191
1 192
1 193
1 194
1 195
1 196
1 197
1 198
1 199
1 200
1 201
1 202
1 203
1 204
1 205
1 206
1 207
1 208
1 209
1 210
1 211

POINT_DATA 212
SCALARS id int 1
LOOKUP_TABLE default
1
4
6
9
12
13
15
16
17
18
19
20
21
22
23
24
25
26
27
28
30
31
32
33
34
35
36
37
38
39
40
41
42
45
49
50
51
52
53
54
56
57
58
61
62
64
65
66
67
68
69
70
71
72
73
74
75
76
77
78
79
80
81
82
83
84
85
89
90
91
93
94
95
98
100
101
102
103
105
106
107
108
110
113
114
116
118
119
120
121
122
123
125
126
128
129
133
134
135
136
137
138
139
141
142
146
147
148
149
151
152
153
154
155
156
157
158
159
160
162
163
165
166
167
168
169
170
171
172
173
174
176
178
182
183
185
188
191
192
195
196
197
198
202
204
206
208
212
214
215
216
217
219
220
222
223
224
225
226
227
229
230
232
234
235
238
239
240
241
242
243
244
245
246
247
248
249
250
251
252
253
256
257
258
259
260
261
262
263
265
266
267
271
272
274
275
278
279
280
281
284
285
286
289
290
292
293
294
295
296
297
299

SCALARS type int 1
LOOKUP_TABLE default
1
1
1
1
1
1
1
1
1
1
1
1
1
1
1
1
1
1
1
1
1
1
1
1
1
1
1
1
1
1
1
1
1
1
1
1
1
1
1
1
1
1
1
1
1
1
1
1
1
1
1
1
1
1
1
1
1
1
1
1
1
1
1
1
1
1
1
1
1
1
1
1
1
1
1
1
1
1
1
1
1
1
1
1
1
1
1
1
1
1
1
1
1
1
1
1
1
1
1
1
1
1
1
1
1
1
1
1
1
1
1
1
1
1
1
1
1
1
1
1
1
1
1
1
1
1
1
1
1
1
1
1
1
1
1
1
1
1
1
1
1
1
1
1
1
1
1
1
1
1
1
1
1
1
1
1
1
1
1
1
1
1
1
1
1
1
1
1
1
1
1
1
1
1
1
1
1
1
1
1
1
1
1
1
1
1
1
1
1
1
1
1
1
1
1
1
1
1
1
1
1
1
1
1
1
1
1
1
1
1
1
1

SCALARS radius float 1
LOOKUP_TABLE default
0.0005
0.0005
0.0005
0.0005
0.0005
0.0005
0.0005
0.0005
0.0005
0.0005
0.0005
0.0005
0.0005
0.0005
0.0005
0.0005
0.0005
0.0005
0.0005
0.0005
0.0005
0.0005
0.0005
0.0005
0.0005
0.0005
0.0005
0.0005
0.0005
0.0005
0.0005
0.0005
0.0005
0.0005
0.0005
0.0005
0.0005
0.0005
0.0005
0.0005
0.0005
0.0005
0.0005
0.0005
0.0005
0.0005
0.0005
0.0005
0.0005
0.0005
0.0005
0.0005
0.0005
0.0005
0.0005
0.0005
0.0005
0.0005
0.0005
0.0005
0.0005
0.0005
0.0005
0.0005
0.0005
0.0005
0.0005
0.0005
0.0005
0.0005
0.0005
0.0005
0.0005
0.0005
0.0005
0.0005
0.0005
0.0005
0.0005
0.0005
0.0005
0.0005
0.0005
0.0005
0.0005
0.0005
0.0005
0.0005
0.0005
0.0005
0.0005
0.0005
0.0005
0.0005
0.0005
0.0005
0.0005
0.0005
0.0005
0.0005
0.0005
0.0005
0.0005
0.0005
0.0005
0.0005
0.0005
0.0005
0.0005
0.0005
0.0005
0.0005
0.0005
0.0005
0.0005
0.0005
0.0005
0.0005
0.0005
0.0005
0.0005
0.0005
0.0005
0.0005
0.0005
0.0005
0.0005
0.0005
0.0005
0.0005
0.0005
0.0005
0.0005
0.0005
0.0005
0.0005
0.0005
0.0005
0.0005
0.0005
0.0005
0.0005
0.0005
0.0005
0.0005
0.0005
0.0005
0.0005
0.0005
0.0005
0.0005
0.0005
0.0005
0.0005
0.0005
0.0005
0.0005
0.0005
0.0005
0.0005
0.0005
0.0005
0.0005
0.0005
0.0005
0.0005
0.0005
0.0005
0.0005
0.0005
0.0005
0.0005
0.0005
0.0005
0.0005
0.0005
0.0005
0.0005
0.0005
0.0005
0.0005
0.0005
0.0005
0.0005
0.0005
0.0005
0.0005
0.0005
0.0005
0.0005
0.0005
0.0005
0.0005
0.0005
0.0005
0.0005
0.0005
0.0005
0.0005
0.0005
0.0005
0.0005
0.0005
0.0005
0.0005
0.0005
0.0005
0.0005
0.0005
0.0005
0.0005
0.0005

SCALARS mass float 1
LOOKUP_TABLE default
1.46608e-07
1.46608e-07
1.46608e-07
1.46608e-07
1.46608e-07
1.46608e-07
1.46608e-07
1.46608e-07
1.46608e-07
1.46608e-07
1.46608e-07
1.46608e-07
1.46608e-07
1.46608e-07
1.46608e-07
1.46608e-07
1.46608e-07
1.46608e-07
1.46608e-07
1.46608e-07
1.46608e-07
1.46608e-07
1.46608e-07
1.46608e-07
1.46608e-07
1.46608e-07
1.46608e-07
1.46608e-07
1.46608e-07
1.46608e-07
1.46608e-07
1.46608e-07
1.46608e-07
1.46608e-07
1.46608e-07
1.46608e-07
1.46608e-07
1.46608e-07
1.46608e-07
1.46608e-07
1.46608e-07
1.46608e-07
1.46608e-07
1.46608e-07
1.46608e-07
1.46608e-07
1.46608e-07
1.46608e-07
1.46608e-07
1.46608e-07
1.46608e-07
1.46608e-07
1.46608e-07
1.46608e-07
1.46608e-07
1.46608e-07
1.46608e-07
1.46608e-07
1.46608e-07
1.46608e-07
1.46608e-07
1.46608e-07
1.46608e-07
1.46608e-07
1.46608e-07
1.46608e-07
1.46608e-07
1.46608e-07
1.46608e-07
1.46608e-07
1.46608e-07
1.46608e-07
1.46608e-07
1.46608e-07
1.46608e-07
1.46608e-07
1.46608e-07
1.46608e-07
1.46608e-07
1.46608e-07
1.46608e-07
1.46608e-07
1.46608e-07
1.46608e-07
1.46608e-07
1.46608e-07
1.46608e-07
1.46608e-07
1.46608e-07
1.46608e-07
1.46608e-07
1.46608e-07
1.46608e-07
1.46608e-07
1.46608e-07
1.46608e-07
1.46608e-07
1.46608e-07
1.46608e-07
1.46608e-07
1.46608e-07
1.46608e-07
1.46608e-07
1.46608e-07
1.46608e-07
1.46608e-07
1.46608e-07
1.46608e-07
1.46608e-07
1.46608e-07
1.46608e-07
1.46608e-07
1.46608e-07
1.46608e-07
1.46608e-07
1.46608e-07
1.46608e-07
1.46608e-07
1.46608e-07
1.46608e-07
1.46608e-07
1.46608e-07
1.46608e-07
1.46608e-07
1.46608e-07
1.46608e-07
1.46608e-07
1.46608e-07
1.46608e-07
1.46608e-07
1.46608e-07
1.46608e-07
1.46608e-07
1.46608e-07
1.46608e-07
1.46608e-07
1.46608e-07
1.46608e-07
1.46608e-07
1.46608e-07
1.46608e-07
1.46608e-07
1.46608e-07
1.46608e-07
1.46608e-07
1.46608e-07
1.46608e-07
1.46608e-07
1.46608e-07
1.46608e-07
1.46608e-07
1.46608e-07
1.46608e-07
1.46608e-07
1.46608e-07
1.46608e-07
1.46608e-07
1.46608e-07
1.46608e-07
1.46608e-07
1.46608e-07
1.46608e-07
1.46608e-07
1.46608e-07
1.46608e-07
1.46608e-07
1.46608e-07
1.46608e-07
1.46608e-07
1.46608e-07
1.46608e-07
1.46608e-07
1.46608e-07
1.46608e-07
1.46608e-07
1.46608e-07
1.46608e-07
1.46608e-07
1.46608e-07
1.46608e-07
1.46608e-07
1.46608e-07
1.46608e-07
1.46608e-07
1.46608e-07
1.46608e-07
1.46608e-07
1.46608e-07
1.46608e-07
1.46608e-07
1.46608e-07
1.46608e-07
1.46608e-07
1.46608e-07
1.46608e-07
1.46608e-07
1.46608e-07
1.46608e-07
1.46608e-07
1.46608e-07
1.46608e-07
1.46608e-07
1.46608e-07
1.46608e-07
1.46608e-07
1.46608e-07
1.46608e-07
1.46608e-07
1.46608e-07
1.46608e-07
1.46608e-07
1.46608e-07

VECTORS velocity float
0.000834418 0.0230716 0.0109952
-0.183866 -0.146961 0.196957
-0.0100436 0.00835957 -0.00803955
-0.00116467 0.000654331 -0.00326033
-0.0901981 -0.153032 -0.00389072
0.0221869 0.00137148 -0.00990629
0.00418116 -0.0032112 0.00539103
0.0751713 -0.0810601 -0.239145
0.0183811 0.0316025 0.0591883
0.000250034 -0.0238755 0.00688311
-3.63172e-16 -3.92867e-14 9.04742e-14
0.000589837 -0.00169528 0.0180423
9.72574e-05 -0.00490706 -0.0213479
0.0292668 -0.0249428 -0.046708
-0.000236036 0.00225375 -0.00424208
-0.0348164 0.0346945 0.00136744
0.00135595 0.00385585 0.0152569
-0.0133329 -0.00107594 -0.0100125
0.0729351 -0.0598269 0.00726641
0.000614545 0.0170308 -0.0168564
-0.000535127 -0.00264759 -0.0015543
9.57643e-06 0.013866 -0.0241472
0.00100667 0.00120456 -0.0115421
0.00472296 0.00540253 -0.00966796
0.000204089 0.0242767 0.0088586
1.30237e-14 5.25707e-15 -1.07337e-13
-8.7146e-16 4.00502e-15 6.83342e-14
-0.0269424 -0.00103655 -0.0220897
0.000925477 -0.00115 -0.00184095
-0.000624516 0.00160969 -8.14983e-06
-0.00682478 -0.00234922 -0.00801738
0.00556 -0.000543265 0.0969816
0.000826456 0.014984 0.0167903
-2.05268e-05 0.0138224 0.0223844
0.00488841 0.0162283 0.0191785
0.00153363 0.00121753 -0.00183201
0.000600098 -0.00630894 -0.0229189
0.00111816 -0.0216823 -0.000499307
0.000773507 -0.0230951 0.00116905
1.10767e-05 0.000483887 -0.0152371
1.09451e-15 2.4696e-14 -1.19876e-13
0.000399422 -0.0184189 -0.0120748
5.50347e-05 0.00020686 -0.000985574
-0.00298184 0.00670401 0.00909657
-2.57715e-14 -5.33096e-14 -1.75326e-13
7.01703e-10 0.0280218 0.00762416
0.00103531 -0.0124517 0.00305047
0.0013081 0.0157857 -0.00772615
-0.000485753 -0.00748373 -0.0251608
-0.00394356 0.00203781 -0.0033449
0.000402435 -0.000609267 0.000188865
-0.0195188 0.0559341 0.174368
-1.92995e-15 -7.30195e-14 -2.20717e-13
0.00155697 0.0150707 0.0131976
0.000118835 0.0241836 0.00633995
0.0875043 -0.0787138 -0.269895
0.0004801 0.0226316 0.0099067
0.00133992 0.00188575 3.4028e-05
-0.00607491 -0.00489675 0.0027449
-0.0169753 0.0116484 -0.0077237
-6.42123e-09 0.0266462 -0.0115073
0.00123041 0.00673369 -0.0144885
0.00348448 -0.101628 -0.278604
-2.64864e-10 0.0228556 -0.00780983
0.00571109 0.00842371 0.0247446
0.00126236 -0.0250711 0.00844504
1.6809e-05 0.0222642 0.01461
-0.00621076 0.000541677 0.00646678
-2.52032e-15 -1.4416e-14 5.58686e-14
2.33599e-15 -1.50066e-15 -4.87691e-14
-0.000384604 -0.00318925 -0.00032076
-0.00315368 0.00205558 0.00250377
0.00249379 0.00121558 -0.00282768
5.4831e-05 -0.000119008 -7.81419e-05
0.000427225 0.000320316 -0.000487805
0.0176151 -0.0120969 -0.0297986
3.60702e-05 0.0114345 0.0224539
-0.000614335 -0.0146529 -0.0171045
-0.0025881 0.00323729 -0.00220802
-0.0079485 0.00277996 -0.0073973
9.41874e-16 -8.55024e-15 -2.18644e-14
0.000401563 -0.00970335 0.0211935
0.0270282 -0.0644915 -0.0774764
0.00029569 0.000208913 5.86101e-05
0.000876141 0.0128693 0.0204959
4.459e-15 -5.44381e-16 5.0025e-14
0.0112019 0.00737912 -0.0124918
0.000547911 0.0219433 -0.00626355
2.0079e-11 0.0226677 0.00813437
-0.000261082 0.00340961 -0.00474154
-0.152723 -0.0811902 0.0648976
0.00130727 0.00345 0.00918817
0.000430811 -0.00517952 0.0215088
-0.000132894 -0.00809899 0.0233808
9.7006e-317 -9.75154e-317 -8.23806e-13
9.14083e-06 0.000610389 -0.000393711
-0.000363892 0.0294227 -0.000993426
-0.00280614 0.0103459 -0.0289765
0.00011672 0.0270237 -0.0347589
-1.2427e-14 -2.00248e-15 2.02605e-13
-0.00252076 0.010723 -0.00761476
0.00145684 -0.0012568 -0.00907005
0.000538027 -0.0177798 0.0163743
9.95941e-16 2.40659e-15 -1.05009e-14
0.0566789 0.025352 -0.110482
-0.00193697 -0.00123347 0.000248003
0.0023661 -0.00611583 -0.193839
-0.000930826 0.00287536 -0.00174565
-0.00854519 -0.00455663 -0.0119932
0.0954511 0.0115177 0.100208
-0.00524514 -0.0213808 -0.0238977
-0.0696214 -0.040136 -0.23298
0.000823372 0.024571 -0.00407134
0.011007 0.135761 -0.253177
1.72605e-280 2.62455e-280 -3.87031e-13
-0.00141142 0.000487427 0.000717043
-0.00937656 0.0169903 -0.0282127
-0.0188906 0.00469497 0.0111128
-0.000673373 0.0175233 -0.0219466
0.00437936 -0.0256975 0.017034
-0.0138518 0.00581937 0.00428
0.000586113 0.0237813 0.00566004
0.0122008 0.151909 -0.192219
-0.0068558 0.00158579 0.0164983
-0.00805612 -0.0137321 -0.0278415
0.000863804 0.0263927 -0.00247406
5.0987e-05 0.0272014 -0.0179416
-0.0234167 -0.0110076 -0.0600729
0.00145533 0.0243631 -0.0573216
0.00440888 -0.00624632 -0.00168257
-0.000196831 0.0222759 -0.0279144
9.94636e-05 -0.0238619 0.00429653
-0.0143642 0.00624784 0.0113935
0.000160657 0.000642351 -0.0257981
0.000134948 0.0234427 0.0060776
-0.00166343 0.00367448 -0.00149802
0.00539382 0.000119681 0.000916019
-1.28559e-07 0.0276844 0.00940063
0.000423406 -3.55173e-05 9.96556e-06
-0.00998396 0.017303 0.00909863
-0.000261813 -0.00156113 -0.00536899
-0.0214378 0.00104747 -0.0195545
0.0436387 0.0238248 0.00079019
-0.00734732 0.00479761 -0.0137206
0.000350624 0.0248443 0.00500198
0.00302341 0.00168638 0.00325476
0.000110549 -0.0246677 -0.00806971
0.00131192 -0.0100184 -0.0347799
-5.03063e-05 0.000202181 0.0002172
0.00204352 -0.021345 -0.00136433
4.09333e-07 0.0240831 0.00171316
0.00562063 0.00532755 -0.0116133
0.000138531 7.80001e-05 -2.50646e-05
4.97968e-05 -0.0222096 0.0134327
-0.0113566 -0.0178231 0.0032925
0.0238745 0.0312637 0.020806
3.05846e-05 0.010807 -0.0223512
0.000412451 0.0244006 -0.000869269
0.000322951 0.000104286 -0.000323491
-0.00341448 0.0027971 0.00220052
3.68155e-05 -0.000213532 6.72064e-05
-0.0480283 -0.167801 -0.0202817
0.0233919 0.0177661 -0.0313761
8.56942e-05 0.0148617 0.0244335
-0.000598029 0.0194501 0.0153493
-0.00954235 0.00205245 0.00536154
-0.0342685 -0.0865995 -0.0085583
-0.00519319 0.00382783 0.0150581
-0.00110803 -0.000436407 -0.00219235
0.000210723 -0.000583821 -0.000385802
0.0130094 0.0170586 -0.0279468
0.000137696 -0.00116961 -0.000169428
-0.0541748 -0.0106619 0.0168854
-0.00233643 -0.0123978 -0.0155415
-0.00490257 -0.00103765 0.00709013
0.000652547 0.0116101 0.0187959
-0.0834328 0.0107322 -0.00853283
0.000864267 0.017219 0.0158932
0.000306339 0.0257272 -0.000241387
0.00226959 -0.00218703 0.000820997
0.00329214 -0.0147261 -0.00836694
0.0016084 0.0271412 -0.0705538
0.0281986 0.0493503 0.114042
0.00014308 0.0203282 0.0134663
0.00514993 0.00627585 -0.00900719
-0.0871992 -0.0961114 0.221542
-0.0011482 0.0171704 0.00249891
-7.7589e-09 0.0289662 -0.00291802
-0.00075568 0.000816366 -0.000938929
0.00814705 -0.0187704 0.0329171
-0.247806 -0.0524129 -0.0465344
-0.00975236 0.00554952 -0.00843062
2.94734e-05 0.007444 -0.0103861
-0.00340307 -0.0115633 -0.00402527
-0.00266594 0.00217269 -0.00378353
0.00460853 0.00206147 -0.00450894
-0.111517 0.0256777 0.0216206
0.00151306 0.0239021 0.0428317
0.0619667 -0.0504433 0.0428021
0.00608551 -0.00732876 0.0129872
0.00148573 -0.000294666 -0.000813477
0.00745628 -0.000121226 -0.00121764
0.258077 -0.230131 1.41622
0.0250748 -0.302558 0.626328
-5.69776e-06 0.0266368 -0.000488298
-0.00154686 0.031919 -0.0211931
-0.000119149 0.0253023 -0.0191569
0.000483775 -0.000854945 -0.00206839
0.000398462 -0.0114715 -0.021475
1.15516e-05 0.0202442 0.0114619
0.0108094 0.0108266 -0.0404322
0.000310731 0.0144057 0.0131541

VECTORS force float
-6.69724e-07 -1.28376e-05 -2.19584e-06
0.0 0.0 -1.43822e-06
-1.28079e-08 1.59472e-08 -1.44714e-09
-1.36796e-06 -3.86822e-07 2.8192e-06
0.0 0.0 -1.43822e-06
6.49956e-07 1.4843e-07 -2.22113e-07
8.60341e-07 1.46747e-06 8.49145e-06
0.0 0.0 -1.43822e-06
0.0 0.0 -1.43822e-06
-2.07483e-09 -5.00339e-09 1.67577e-08
1.8198e-22 0.0 0.0
-1.46452e-07 2.02594e-06 -4.19904e-06
3.76801e-06 -1.0644e-07 -5.48692e-07
0.0 0.0 -1.43822e-06
-4.73657e-06 1.93513e-07 -3.54445e-06
0.0 0.0 -1.43822e-06
-4.64235e-06 -8.783e-07 7.62414e-07
0.0 0.0 -1.43822e-06
0.0 0.0 -1.43822e-06
-3.3555e-09 -3.32116e-09 -1.85502e-08
-7.87613e-06 -2.591e-06 8.06608e-06
-2.09654e-10 -1.67897e-08 -6.89372e-09
1.61603e-07 -6.69473e-07 1.15297e-06
-2.04853e-07 8.71101e-07 -1.47181e-06
-6.12216e-07 -1.16948e-07 1.63554e-05
-1.32349e-21 -1.91906e-21 -4.23516e-22
-3.04227e-19 -8.2321e-21 -3.81165e-21
0.0 0.0 -1.43822e-06
-1.06929e-05 2.53419e-05 8.87375e-05
3.58832e-06 -1.79065e-06 1.57614e-06
0.0 0.0 -1.43822e-06
0.0 0.0 -1.43822e-06
1.91339e-08 -2.34701e-08 -3.632e-08
1.34714e-07 -5.32421e-07 -6.71848e-07
-2.07958e-07 6.79138e-07 -5.98205e-07
5.90888e-10 4.15444e-07 -5.94486e-07
-1.41096e-09 -1.55426e-08 -8.15655e-09
1.83442e-09 -5.70067e-09 2.28962e-08
-2.02897e-08 -1.69161e-07 2.97949e-08
5.69151e-07 2.84129e-07 -4.32373e-07
-1.78671e-22 0.0 0.0
-2.71591e-10 -2.51262e-08 6.45611e-09
1.86539e-06 1.43793e-07 -2.13581e-06
9.16098e-10 -1.41327e-07 -1.25586e-07
1.38278e-19 6.78685e-20 -4.61633e-20
4.27228e-15 6.07745e-09 -2.24568e-08
1.6837e-05 3.61918e-06 -5.63658e-06
-3.80394e-10 -1.0246e-07 6.75743e-08
-9.69523e-07 2.39115e-07 1.01616e-06
1.99909e-08 -4.6886e-07 -7.4819e-07
-3.69838e-06 8.89679e-07 8.64554e-07
0.0 0.0 -1.43822e-06
-8.77655e-20 -1.79995e-21 8.47033e-22
1.68185e-08 -3.48579e-08 -6.8994e-08
1.61712e-07 -4.27711e-09 -2.7096e-08
0.0 0.0 -1.43822e-06
-6.49234e-08 1.76206e-07 -2.32082e-08
-1.5338e-05 -5.86175e-06 2.33687e-06
-8.3608e-07 6.09221e-07 1.00981e-06
3.84281e-05 9.86156e-06 2.74718e-05
-1.41188e-14 -9.12837e-09 -2.13863e-08
6.3158e-07 1.44199e-07 8.24786e-07
0.0 0.0 -1.43822e-06
-1.1824e-15 -6.26891e-09 -1.78249e-08
1.55094e-06 -3.82589e-08 -8.19363e-08
-2.32002e-06 8.77377e-06 -5.12599e-06
-4.53038e-12 1.30457e-08 -1.98775e-08
1.03535e-06 -1.37647e-07 -2.78949e-07
1.32217e-20 -2.43522e-21 0.0
1.85288e-22 -1.93891e-21 0.0
-8.43897e-06 8.02806e-07 -4.80794e-06
1.35359e-06 -1.20769e-06 6.41061e-07
-8.00515e-07 -1.43655e-07 2.45125e-06
-5.01299e-06 3.73195e-06 -7.35171e-06
4.43742e-06 -2.66613e-06 5.47033e-06
0.0 0.0 -1.43822e-06
1.18957e-08 1.81583e-09 -1.50681e-08
-4.13688e-08 -4.37913e-08 2.60465e-09
9.70886e-10 1.31698e-07 -2.95165e-08
-5.00695e-07 -1.99524e-07 -8.1493e-07
-2.16258e-20 6.35275e-22 -6.35275e-22
8.61359e-07 -2.8036e-07 1.32142e-06
0.0 0.0 -1.43822e-06
1.24245e-07 -4.76881e-07 4.48874e-07
3.89811e-07 -1.84221e-07 1.14074e-06
3.0255e-19 1.29254e-18 -6.56451e-21
-2.43148e-07 5.64182e-07 -9.27038e-07
2.70152e-08 -1.22452e-07 2.43088e-08
-2.89098e-14 6.37968e-09 -1.77127e-08
-7.07763e-06 -8.8816e-06 3.9843e-06
0.0 0.0 -1.43822e-06
-2.7369e-07 -2.71687e-07 -1.10438e-06
1.14286e-07 3.38477e-07 3.59713e-06
5.27372e-05 7.31312e-06 -8.07307e-05
0.0 0.0 0.0
-2.8659e-06 1.09607e-07 -4.05393e-06
2.22474e-09 -2.32467e-09 -2.38548e-08
-0.00051703 -0.000882989 0.00169835
2.48472e-09 1.03023e-07 -1.09704e-06
0.0 0.0 0.0
-1.38857e-05 -3.82221e-06 1.42198e-05
-2.78942e-07 -1.62764e-06 -8.14263e-07
-8.55119e-10 3.30538e-09 1.76189e-08
-1.27889e-19 1.01962e-19 1.3129e-20
1.16878e-07 3.62572e-07 -8.19512e-07
-8.37767e-08 -1.032e-07 -2.56054e-08
0.0 0.0 -1.43822e-06
-1.10251e-06 -2.80276e-06 1.86302e-06
4.02646e-09 -1.64344e-07 -1.08815e-06
0.0 0.0 -1.43822e-06
-4.05589e-07 3.19443e-08 -8.28264e-07
0.0 0.0 -1.43822e-06
1.84461e-08 1.30547e-08 -2.69624e-08
-1.38892e-07 3.52675e-07 -7.35745e-07
-1.04259e-281 -1.58531e-281 0.0
2.31943e-07 4.57314e-08 -1.52055e-07
7.4254e-08 3.20135e-07 -5.53887e-07
0.0 0.0 -1.43822e-06
-4.51293e-06 -2.89094e-07 1.07867e-05
0.0158441 -0.0648436 -0.0604263
4.10786e-07 -2.56957e-07 -5.66842e-08
1.19417e-10 5.28382e-09 -2.1025e-08
0.0 0.0 -1.43822e-06
8.0456e-07 8.0442e-08 4.40397e-07
2.34926e-06 5.67647e-06 3.67911e-06
2.15523e-08 -2.12032e-09 -5.00871e-08
7.77863e-10 9.18915e-08 -1.11672e-07
0.0 0.0 -1.43822e-06
0.0 0.0 -1.43822e-06
-1.89663e-08 3.26617e-07 -4.70168e-08
-1.38601e-08 3.11384e-07 -4.68862e-07
-2.58797e-09 -6.08542e-09 1.37661e-08
0.0 0.0 -1.43822e-06
-1.87476e-09 -1.64424e-08 -1.06975e-08
2.77647e-07 5.55883e-08 9.49989e-09
-2.75976e-06 3.19162e-06 -7.51768e-06
7.62303e-08 -2.35975e-07 -2.88191e-07
-1.87392e-11 6.26211e-09 -2.26803e-08
6.60554e-07 1.90838e-07 2.6065e-07
1.63542e-07 5.62753e-07 -9.61355e-08
-2.85438e-06 -1.48668e-05 -2.87285e-05
3.49763e-06 2.18396e-05 4.11865e-05
-6.41061e-07 1.89869e-07 -6.43028e-08
0.0 0.0 -1.43822e-06
2.18886e-06 -6.04665e-06 -5.55352e-06
-6.40341e-08 -2.83042e-08 -7.66285e-08
3.52754e-10 -1.3137e-08 1.34215e-08
-2.36402e-06 -5.7242e-06 -6.46232e-06
5.0348e-07 -3.09065e-07 -4.09056e-07
-4.62251e-07 -7.8909e-07 6.1062e-08
2.58101e-09 -1.07039e-09 -2.24883e-08
0.0 0.0 -1.43822e-06
-3.99835e-07 -2.25597e-08 3.80274e-08
-1.78619e-09 1.10039e-09 1.83133e-08
0.0 0.0 -1.43822e-06
-8.2512e-05 3.85564e-07 -0.000120353
5.91553e-07 2.02662e-07 -1.12242e-07
3.14872e-06 -1.85692e-06 -2.37939e-06
-2.50561e-06 -9.53178e-07 1.38417e-05
8.12776e-08 -2.08124e-08 8.1838e-09
-1.0837e-06 -2.34442e-07 1.25141e-06
0.0 0.0 -1.43822e-06
0.0 0.0 -1.43822e-06
-3.28661e-06 3.55757e-07 1.05066e-06
0.0 0.0 -1.43822e-06
-3.98906e-06 1.12735e-06 2.01402e-06
0.0 0.0 -1.43822e-06
1.78335e-07 -1.37503e-08 -8.5883e-07
3.98212e-08 -8.52921e-08 -2.67279e-08
-1.80623e-07 2.05478e-07 4.98985e-07
-2.1318e-07 3.33543e-07 -8.11507e-07
-1.45032e-05 2.12234e-06 7.93687e-06
0.00083537 -0.000609719 0.000670388
-4.66547e-07 4.00278e-07 -1.1394e-06
-1.44233e-07 -9.33307e-07 3.32139e-07
5.06224e-07 3.02351e-08 -1.6113e-06
8.2512e-05 -3.85564e-07 0.000117477
-1.196e-06 9.73609e-07 1.09944e-06
3.73606e-09 -1.08927e-08 -1.49908e-08
9.05929e-09 -2.03838e-08 2.34011e-08
-2.0344e-08 -6.63621e-08 -3.34591e-08
0.0 0.0 -1.43822e-06
0.0 0.0 -1.43822e-06
-3.33344e-09 5.05669e-09 -1.49353e-08
-4.71699e-06 -9.40813e-07 9.37981e-07
0.0 0.0 -1.43822e-06
2.85378e-08 4.99758e-07 5.42418e-08
-2.26957e-14 -2.24834e-09 -2.32247e-08
-7.77359e-08 -4.32091e-09 -3.96299e-09
0.0 0.0 -1.43822e-06
0.0 0.0 -1.43822e-06
-1.13114e-06 -1.05523e-06 5.63502e-06
1.55326e-05 2.96311e-06 -7.72835e-06
2.46862e-08 2.01476e-07 1.30556e-07
4.78339e-08 1.18698e-07 -1.17999e-06
5.24111e-06 -1.7637e-06 6.54884e-06
0.0 0.0 -1.43822e-06
6.58303e-07 -4.32839e-06 1.26715e-05
0.0 0.0 -1.43822e-06
-9.77286e-05 0.000263387 -0.000577079
6.99356e-07 4.44576e-07 -2.41128e-06
-5.94579e-07 2.05049e-07 6.3838e-07
0.0 0.0 -1.43822e-06
0.0 0.0 -1.43822e-06
-5.36315e-13 -4.37779e-10 -2.38474e-08
-2.45909e-06 4.05626e-06 -4.23463e-05
-8.73227e-09 1.3563e-07 -1.50805e-07
-7.52111e-07 9.91367e-09 6.01446e-07
-2.3128e-09 -1.80582e-08 -2.89058e-09
-8.16185e-09 7.01008e-09 -8.45833e-09
0.0 0.0 -1.43822e-06
-5.34569e-08 -1.04776e-07 -9.06416e-08
