# vtk DataFile Version 3.0
LIGGGHTS particles timestep 3000000
ASCII
DATASET POLYDATA
POINTS 316 float
0.0140984 0.0210235 0.0163729
0.0181348 0.0243329 0.0136472
0.0264097 0.0230766 0.00985996
0.0162333 0.0171337 0.0164475
0.02476 0.0165812 0.015193
0.022481 0.0182495 0.0158718
0.024076 0.0159159 0.0148807
0.0219563 0.0227483 0.0153359
0.0214831 0.0242565 0.014061
0.0201762 0.0242927 0.0139371
0.0204099 0.0186608 0.0167673
0.0207431 0.0240738 0.0131489
0.0192283 0.0244584 0.0136804
0.0213304 0.0226576 0.0140682
0.0219735 0.0211771 0.0171702
0.0232028 0.0186102 0.0165214
0.0222606 0.0237076 0.0139644
0.0228894 0.0229941 0.0135583
0.0206459 0.0224233 0.0165985
0.0207388 0.014852 0.0154089
0.020031 0.0136973 0.0137594
0.0201563 0.0227413 0.0174114
0.0230671 0.0228748 0.0154343
0.0216183 0.0149512 0.0158743
0.0214856 0.0234077 0.0159217
0.0213418 0.0192863 0.0167863
0.0287091 0.019553 0.0157925
0.0204225 0.0207868 0.016481
0.0157613 0.0226762 0.0164269
0.0166875 0.0219476 0.0171224
0.021412 0.0160215 0.0158212
0.0174145 0.0216602 0.017746
0.0454257 0.0173169 0.00620813
0.0253986 0.0176481 0.0166787
0.0213017 0.0147972 0.0145844
0.0270333 0.0232308 0.0127304
0.0209066 0.0156825 0.0166146
0.0209934 0.0230767 0.0151162
0.0225512 0.023296 0.0147631
0.0184425 0.0140501 0.0142283
0.0239301 0.0191902 0.0169288
0.0142191 0.0153053 0.0151771
0.018701 0.0146133 0.0119521
0.0487553 0.0195855 0.00596623
0.0197595 0.0234842 0.014367
0.0256696 0.0188566 0.0167611
0.0238328 0.0226837 0.0159554
0.0228189 0.0184892 0.017437
0.020648 0.019171 0.0175967
0.0262212 0.0226445 0.00915816
0.0207829 0.023577 0.014277
0.0279447 0.0204686 0.0155517
0.01723 0.0189757 0.0159475
0.0197845 0.0241068 0.0129537
0.0213335 0.0165172 0.0169991
0.0180311 0.0224216 0.0174655
0.0172163 0.0239756 0.0134745
0.0266448 0.0234034 0.0110933
0.0185921 0.0194632 0.0167363
0.0257255 0.0202461 0.0166302
0.0244272 0.0222309 0.0155785
0.0179242 0.0241275 0.0166677
0.0244154 0.0181293 0.0158463
0.0216838 0.0237711 0.0149118
0.0157194 0.0234464 0.0145973
0.0224155 0.0143388 0.0145024
0.0157297 0.0217875 0.0168841
0.0227358 0.017708 0.0166772
0.0240218 0.0149217 0.0103388
0.0213959 0.0229044 0.00945259
0.0194847 0.0210993 0.0163312
0.0166945 0.0147212 0.01456
0.022206 0.0160798 0.0172172
0.0168954 0.0229974 0.017402
0.0232482 0.0169265 0.0163219
0.0130542 0.0195015 0.0171068
0.0240617 0.0194696 0.00583499
0.0231766 0.0207552 0.0172218
0.0195453 0.0191614 0.0167321
0.0207927 0.0140821 0.0132382
0.0216331 0.0219157 0.0149067
0.0207292 0.023421 0.011576
0.0186785 0.0204446 0.0165668
0.0245724 0.0147927 0.0120802
0.0173875 0.0216454 0.0161702
0.0196322 0.0201525 0.0166338
0.0188675 0.0172884 0.00755429
0.0174892 0.0147226 0.0129243
0.0230826 0.015889 0.0147632
0.022493 0.0150626 0.015188
0.0165922 0.014211 0.0136522
0.0163906 0.0238321 0.0139908
0.015795 0.0145086 0.0141774
0.0213791 0.0205141 0.0165894
0.0275084 0.022097 0.0145707
0.0173894 0.0234724 0.014388
0.0216619 0.0237432 0.0132027
0.0176646 0.0198701 0.0169362
0.0205577 0.0198938 0.0169097
0.0234206 0.0150294 0.0129819
0.0192213 0.0216537 0.0171206
0.018807 0.0184911 0.0168408
0.0235598 0.0218654 0.0149564
0.0235216 0.0167609 0.0153174
0.0177463 0.0158818 0.0146137
0.0203317 0.0144639 0.0162355
0.0217671 0.017396 0.0166427
0.0148938 0.0187903 0.0167644
0.0201515 0.0232 0.0162076
0.0240168 0.0203146 0.0168038
0.0178385 0.0240597 0.0127209
0.0230762 0.0194226 0.015944
0.0216824 0.0236986 0.0169414
0.0237808 0.0210408 0.0154926
0.017393 0.0178076 0.0157922
0.0201666 0.0225456 0.00899559
0.0218887 0.0220983 0.0162722
0.0250095 0.0215393 0.0159967
0.0146069 0.0218526 0.0159783
0.0254631 0.0165522 0.0267665
0.0158134 0.0150696 0.0152798
0.0263823 0.0180993 0.0659749
0.0228333 0.016143 0.0156971
0.0239308 0.0176023 0.0166788
0.0175216 0.0139095 0.0138648
0.0164929 0.0236386 0.0151908
0.0254068 0.0216013 0.0167716
0.0226865 0.021461 0.0152317
0.0196795 0.0170533 0.0163318
0.0248411 0.020095 0.00587334
0.0234543 0.0149681 0.0149134
0.0246826 0.0157838 0.0161268
0.0129913 0.0210336 0.0163811
0.0226867 0.0173012 0.0155841
0.0182716 0.0141043 0.0128515
0.0140137 0.0224935 0.0154912
0.0247243 0.0221426 0.0164296
0.0150068 0.014849 0.0146918
0.0259681 0.0217831 0.00826897
0.0200546 0.01521 0.0168408
0.0188147 0.0236325 0.0140602
0.0223484 0.0230751 0.0163021
0.0228662 0.0221215 0.0160618
0.0222176 0.0187647 0.0166872
0.0235975 0.0147697 0.0120485
0.0256848 0.0207539 0.00765238
0.0183365 0.0237935 0.0158137
0.0173063 0.0226996 0.0153529
0.0222024 0.0196622 0.0171273
0.0221632 0.016534 0.0163275
0.0191185 0.0226545 0.0174113
0.0213572 0.0219638 0.0171312
0.0196431 0.0224285 0.0165905
0.0149048 0.0228399 0.0157725
0.023223 0.0153659 0.0139232
0.0277469 0.0212419 0.0152002
0.0246812 0.0185405 0.0167197
0.0186382 0.0162038 0.0149329
0.0197309 0.0210482 0.00769315
0.0213504 0.0200354 0.0175025
0.0221419 0.0197737 0.0158839
0.0182055 0.0238557 0.0148201
0.0207528 0.016716 0.0162097
0.018504 0.0153397 0.0160255
0.017701 0.0146127 0.0119531
0.019056 0.0136627 0.0135395
0.0557224 0.0193212 0.00585087
0.019854 0.0245616 0.0171872
0.0200475 0.0162002 0.0167014
0.017803 0.0209752 0.0155461
0.0209615 0.0210404 0.0173305
0.0183783 0.0152292 0.0150318
0.024914 0.0207273 0.0169585
0.0151825 0.0211317 0.0163642
0.0173562 0.0236373 0.0156946
0.0124706 0.0202099 0.0166055
0.0207754 0.0242483 0.0174173
0.0210269 0.0233359 0.0125903
0.0241498 0.0212548 0.016487
0.0233255 0.0226632 0.0143949
0.0201709 0.0225927 0.0154135
0.0189478 0.0166133 0.0168525
0.0223791 0.0204883 0.0165674
0.0165714 0.023168 0.0161088
0.016932 0.0162416 0.0150708
0.0150948 0.0224861 0.0172142
0.0190721 0.0183435 0.00724335
0.0182013 0.0214869 0.0171539
0.0202759 0.0237344 0.0153457
0.0240406 0.0190717 0.0159423
0.0172648 0.0153062 0.0138934
0.0213368 0.0182867 0.0167869
0.0231528 0.0198154 0.0168608
0.0216027 0.0233914 0.0113587
0.0155065 0.0223108 0.0145163
0.0146413 0.0211357 0.0172051
0.0179669 0.0164529 0.0162341
0.0180733 0.023114 0.0164983
0.0205995 0.0176381 0.0165658
0.0365933 0.0210052 0.0435188
0.0170147 0.0201756 0.0159806
0.0198895 0.0218587 0.00821911
0.0185642 0.0172772 0.0155717
0.0161167 0.0234432 0.0169609
0.0169479 0.0239126 0.0166594
0.0187914 0.0175462 0.0165075
0.018795 0.0241026 0.0128889
0.0161304 0.0227338 0.0151555
0.0217126 0.0152321 0.0170167
0.0194139 0.0147829 0.0159992
0.0196931 0.0140564 0.0128768
0.0208171 0.0238974 0.0164809
0.0182475 0.0228907 0.0150761
0.0205628 0.0232813 0.0106492
0.0147199 0.0202845 0.0166327
0.0211499 0.0214256 0.0162301
0.019291 0.023764 0.0155178
0.024944 0.019104 0.017503
0.0164844 0.0184841 0.0168645
0.0251654 0.0166553 0.0162154
0.017132 0.0224438 0.0143902
0.0178122 0.0233962 0.0174213
0.0165948 0.0221908 0.015899
0.0217036 0.0143245 0.0138003
0.0225308 0.0219987 0.0170324
0.01651 0.024113 0.0175905
0.0174847 0.0243323 0.0175486
0.0231421 0.0211958 0.0163238
0.0250984 0.0171651 0.00761802
0.0182314 0.0189244 0.0159404
0.0248515 0.0197559 0.0167142
0.0211663 0.0144273 0.016785
0.0210812 0.0222772 0.0157101
0.0162513 0.0192821 0.0159413
0.0155528 0.0220841 0.015649
0.0192512 0.0155677 0.0154013
0.019287 0.0206956 0.0173992
0.0198752 0.0241593 0.0162721
0.0202133 0.021616 0.017
0.0209817 0.0137211 0.0141513
0.0192449 0.0228434 0.0151315
0.017237 0.0225699 0.0165651
0.0157982 0.0192119 0.0168301
0.0134861 0.0186763 0.0167431
0.023111 0.0157907 0.0168931
0.0179994 0.0200539 0.0158787
0.0229341 0.0204096 0.0157384
0.0195836 0.023504 0.0169723
0.022265 0.0224889 0.0143155
0.0168173 0.0210457 0.015491
0.0237219 0.016062 0.0161483
0.0243579 0.0156642 0.00878932
0.0185291 0.0213691 0.016217
0.0189862 0.0144427 0.0151405
0.0227385 0.0230253 0.0172214
0.0184593 0.0245196 0.0174262
0.0191461 0.022089 0.0157813
0.0169772 0.0208346 0.0171795
0.0204127 0.0145416 0.0142042
0.021948 0.0207448 0.0156081
0.0185939 0.0222735 0.0166493
0.015564 0.0201315 0.0171463
0.0164345 0.0212837 0.0163837
0.0188729 0.01542 0.0140635
0.0188998 0.0163731 0.015883
0.0167119 0.0196206 0.0167623
0.0162534 0.022739 0.0140177
0.0144446 0.0232277 0.0104863
0.0164187 0.0218107 0.0149912
0.01531 0.0229148 0.0137568
0.0170919 0.0230002 0.0135577
0.0219357 0.0229722 0.0135188
0.0160153 0.0209847 0.0174073
0.0192684 0.0174043 0.0173748
0.0164699 0.0183009 0.0158806
0.0123361 0.0192267 0.0164667
0.0175286 0.0217821 0.0150252
0.0234326 0.0179499 0.0158055
0.0187836 0.0235842 0.0175666
0.0134822 0.0202699 0.0176186
0.0238204 0.0183019 0.017386
0.0173904 0.0152145 0.015285
0.0193666 0.0145589 0.0138558
0.0158336 0.0211495 0.0154307
0.0160342 0.0202511 0.0158147
0.0182122 0.0205315 0.0174486
0.0167264 0.017119 0.0155071
0.0196702 0.0179961 0.0166647
0.0177777 0.0167274 0.0152913
0.0239776 0.0200991 0.0158242
0.0178561 0.0189058 0.01712
0.0164535 0.0200955 0.0176043
0.020234 0.0157055 0.0155387
0.0176916 0.0146494 0.0145156
0.0181342 0.0221567 0.015745
0.0148117 0.0231472 0.0148391
0.0188381 0.0148963 0.0130772
0.0165244 0.023326 0.0127762
0.0235299 0.0218951 0.0169793
0.0144435 0.0199717 0.0175414
0.0190449 0.0197427 0.017583
0.0123993 0.0179047 0.0165797
0.0179389 0.0180618 0.0165903
0.0198484 0.0149096 0.014943
0.0237609 0.0165689 0.0171045
0.0141328 0.0194389 0.0167543
0.013549 0.0217758 0.0160097
0.0177382 0.0207825 0.0165332
0.0242552 0.0169812 0.0159602
0.0223562 0.015506 0.0163022
0.0189914 0.0230191 0.0161137
0.0226303 0.0225192 0.018077
0.0189159 0.0241811 0.0165527
0.0201329 0.0217855 0.0160021
0.0135364 0.0202304 0.0166209
0.0213109 0.0175973 0.0175113

VERTICES 316 632
1 0
1 1
1 2
1 3
1 4
1 5
1 6
1 7
1 8
1 9
1 10
1 11
1 12
1 13
1 14
1 15
1 16
1 17
1 18
1 19
1 20
1 21
1 22
1 23
1 24
1 25
1 26
1 27
1 28
1 29
1 30
1 31
1 32
1 33
1 34
1 35
1 36
1 37
1 38
1 39
1 40
1 41
1 42
1 43
1 44
1 45
1 46
1 47
1 48
1 49
1 50
1 51
1 52
1 53
1 54
1 55
1 56
1 57
1 58
1 59
1 60
1 61
1 62
1 63
1 64
1 65
1 66
1 67
1 68
1 69
1 70
1 71
1 72
1 73
1 74
1 75
1 76
1 77
1 78
1 79
1 80
1 81
1 82
1 83
1 84
1 85
1 86
1 87
1 88
1 89
1 90
1 91
1 92
1 93
1 94
1 95
1 96
1 97
1 98
1 99
1 100
1 101
1 102
1 103
1 104
1 105
1 106
1 107
1 108
1 109
1 110
1 111
1 112
1 113
1 114
1 115
1 116
1 117
1 118
1 119
1 120
1 121
1 122
1 123
1 124
1 125
1 126
1 127
1 128
1 129
1 130
1 131
1 132
1 133
1 134
1 135
1 136
1 137
1 138
1 139
1 140
1 141
1 142
1 143
1 144
1 145
1 146
1 147
1 148
1 149
1 150
1 151
1 152
1 153
1 154
1 155
1 156
1 157
1 158
1 159
1 160
1 161
1 162
1 163
1 164
1 165
1 166
1 167
1 168
1 169
1 170
1 171
1 172
1 173
1 174
1 175
1 176
1 177
1 178
1 179
1 180
1 181
1 182
1 183
1 184
1 185
1 186
1 187
1 188
1 189
1 190
1 191
1 192
1 193
1 194
1 195
1 196
1 197
1 198
1 199
1 200
1 201
1 202
1 203
1 204
1 205
1 206
1 207
1 208
1 209
1 210
1 211
1 212
1 213
1 214
1 215
1 216
1 217
1 218
1 219
1 220
1 221
1 222
1 223
1 224
1 225
1 226
1 227
1 228
1 229
1 230
1 231
1 232
1 233
1 234
1 235
1 236
1 237
1 238
1 239
1 240
1 241
1 242
1 243
1 244
1 245
1 246
1 247
1 248
1 249
1 250
1 251
1 252
1 253
1 254
1 255
1 256
1 257
1 258
1 259
1 260
1 261
1 262
1 263
1 264
1 265
1 266
1 267
1 268
1 269
1 270
1 271
1 272
1 273
1 274
1 275
1 276
1 277
1 278
1 279
1 280
1 281
1 282
1 283
1 284
1 285
1 286
1 287
1 288
1 289
1 290
1 291
1 292
1 293
1 294
1 295
1 296
1 297
1 298
1 299
1 300
1 301
1 302
1 303
1 304
1 305
1 306
1 307
1 308
1 309
1 310
1 311
1 312
1 313
1 314
1 315

POINT_DATA 316
SCALARS id int 1
LOOKUP_TABLE default
1
2
3
4
5
6
7
8
9
10
11
12
13
14
15
16
17
18
19
21
22
23
24
25
26
27
28
29
31
33
34
35
36
37
38
39
40
41
42
43
44
45
46
47
49
50
51
52
53
54
55
56
57
58
59
60
61
62
63
64
65
66
67
69
70
71
72
73
74
75
76
77
78
79
80
81
82
84
85
86
87
88
89
90
91
92
93
94
95
96
97
98
99
100
101
102
103
104
105
106
107
109
110
111
112
113
114
115
116
117
118
119
120
121
122
123
124
126
127
128
129
130
131
132
133
134
135
136
137
138
139
140
141
142
143
144
145
146
147
148
149
150
151
152
153
154
155
156
157
158
159
160
161
162
163
164
165
166
167
168
169
170
171
172
174
175
176
177
178
179
180
181
182
183
184
185
186
188
189
190
191
192
193
194
196
197
198
200
201
202
203
206
207
208
209
210
212
213
214
215
216
217
218
219
220
221
222
223
224
225
227
228
229
230
231
232
234
235
236
237
238
239
240
241
242
243
244
245
246
247
248
249
250
251
252
253
254
255
256
257
258
259
260
261
262
263
264
266
267
268
269
270
271
272
273
276
277
278
279
280
281
282
283
284
285
287
288
289
290
291
292
293
294
296
297
298
299
300
301
302
303
304
305
306
307
308
309
311
312
313
314
315
316
317
319
320
321
322
323
324
325
326
327
328
329
331
332
333
334
335
336
337
338
339
340
341

SCALARS type int 1
LOOKUP_TABLE default
1
1
1
1
1
1
1
1
1
1
1
1
1
1
1
1
1
1
1
1
1
1
1
1
1
1
1
1
1
1
1
1
1
1
1
1
1
1
1
1
1
1
1
1
1
1
1
1
1
1
1
1
1
1
1
1
1
1
1
1
1
1
1
1
1
1
1
1
1
1
1
1
1
1
1
1
1
1
1
1
1
1
1
1
1
1
1
1
1
1
1
1
1
1
1
1
1
1
1
1
1
1
1
1
1
1
1
1
1
1
1
1
1
1
1
1
1
1
1
1
1
1
1
1
1
1
1
1
1
1
1
1
1
1
1
1
1
1
1
1
1
1
1
1
1
1
1
1
1
1
1
1
1
1
1
1
1
1
1
1
1
1
1
1
1
1
1
1
1
1
1
1
1
1
1
1
1
1
1
1
1
1
1
1
1
1
1
1
1
1
1
1
1
1
1
1
1
1
1
1
1
1
1
1
1
1
1
1
1
1
1
1
1
1
1
1
1
1
1
1
1
1
1
1
1
1
1
1
1
1
1
1
1
1
1
1
1
1
1
1
1
1
1
1
1
1
1
1
1
1
1
1
1
1
1
1
1
1
1
1
1
1
1
1
1
1
1
1
1
1
1
1
1
1
1
1
1
1
1
1
1
1
1
1
1
1
1
1
1
1
1
1
1
1
1
1
1
1
1
1
1
1
1
1
1
1
1
1
1
1
1
1
1
1
1
1

SCALARS radius float 1
LOOKUP_TABLE default
0.0005
0.0005
0.0005
0.0005
0.0005
0.0005
0.0005
0.0005
0.0005
0.0005
0.0005
0.0005
0.0005
0.0005
0.0005
0.0005
0.0005
0.0005
0.0005
0.0005
0.0005
0.0005
0.0005
0.0005
0.0005
0.0005
0.0005
0.0005
0.0005
0.0005
0.0005
0.0005
0.0005
0.0005
0.0005
0.0005
0.0005
0.0005
0.0005
0.0005
0.0005
0.0005
0.0005
0.0005
0.0005
0.0005
0.0005
0.0005
0.0005
0.0005
0.0005
0.0005
0.0005
0.0005
0.0005
0.0005
0.0005
0.0005
0.0005
0.0005
0.0005
0.0005
0.0005
0.0005
0.0005
0.0005
0.0005
0.0005
0.0005
0.0005
0.0005
0.0005
0.0005
0.0005
0.0005
0.0005
0.0005
0.0005
0.0005
0.0005
0.0005
0.0005
0.0005
0.0005
0.0005
0.0005
0.0005
0.0005
0.0005
0.0005
0.0005
0.0005
0.0005
0.0005
0.0005
0.0005
0.0005
0.0005
0.0005
0.0005
0.0005
0.0005
0.0005
0.0005
0.0005
0.0005
0.0005
0.0005
0.0005
0.0005
0.0005
0.0005
0.0005
0.0005
0.0005
0.0005
0.0005
0.0005
0.0005
0.0005
0.0005
0.0005
0.0005
0.0005
0.0005
0.0005
0.0005
0.0005
0.0005
0.0005
0.0005
0.0005
0.0005
0.0005
0.0005
0.0005
0.0005
0.0005
0.0005
0.0005
0.0005
0.0005
0.0005
0.0005
0.0005
0.0005
0.0005
0.0005
0.0005
0.0005
0.0005
0.0005
0.0005
0.0005
0.0005
0.0005
0.0005
0.0005
0.0005
0.0005
0.0005
0.0005
0.0005
0.0005
0.0005
0.0005
0.0005
0.0005
0.0005
0.0005
0.0005
0.0005
0.0005
0.0005
0.0005
0.0005
0.0005
0.0005
0.0005
0.0005
0.0005
0.0005
0.0005
0.0005
0.0005
0.0005
0.0005
0.0005
0.0005
0.0005
0.0005
0.0005
0.0005
0.0005
0.0005
0.0005
0.0005
0.0005
0.0005
0.0005
0.0005
0.0005
0.0005
0.0005
0.0005
0.0005
0.0005
0.0005
0.0005
0.0005
0.0005
0.0005
0.0005
0.0005
0.0005
0.0005
0.0005
0.0005
0.0005
0.0005
0.0005
0.0005
0.0005
0.0005
0.0005
0.0005
0.0005
0.0005
0.0005
0.0005
0.0005
0.0005
0.0005
0.0005
0.0005
0.0005
0.0005
0.0005
0.0005
0.0005
0.0005
0.0005
0.0005
0.0005
0.0005
0.0005
0.0005
0.0005
0.0005
0.0005
0.0005
0.0005
0.0005
0.0005
0.0005
0.0005
0.0005
0.0005
0.0005
0.0005
0.0005
0.0005
0.0005
0.0005
0.0005
0.0005
0.0005
0.0005
0.0005
0.0005
0.0005
0.0005
0.0005
0.0005
0.0005
0.0005
0.0005
0.0005
0.0005
0.0005
0.0005
0.0005
0.0005
0.0005
0.0005
0.0005
0.0005
0.0005
0.0005
0.0005
0.0005
0.0005
0.0005
0.0005
0.0005
0.0005
0.0005
0.0005
0.0005
0.0005
0.0005
0.0005
0.0005
0.0005
0.0005
0.0005
0.0005
0.0005
0.0005
0.0005
0.0005
0.0005
0.0005
0.0005
0.0005
0.0005

SCALARS mass float 1
LOOKUP_TABLE default
1.46608e-07
1.46608e-07
1.46608e-07
1.46608e-07
1.46608e-07
1.46608e-07
1.46608e-07
1.46608e-07
1.46608e-07
1.46608e-07
1.46608e-07
1.46608e-07
1.46608e-07
1.46608e-07
1.46608e-07
1.46608e-07
1.46608e-07
1.46608e-07
1.46608e-07
1.46608e-07
1.46608e-07
1.46608e-07
1.46608e-07
1.46608e-07
1.46608e-07
1.46608e-07
1.46608e-07
1.46608e-07
1.46608e-07
1.46608e-07
1.46608e-07
1.46608e-07
1.46608e-07
1.46608e-07
1.46608e-07
1.46608e-07
1.46608e-07
1.46608e-07
1.46608e-07
1.46608e-07
1.46608e-07
1.46608e-07
1.46608e-07
1.46608e-07
1.46608e-07
1.46608e-07
1.46608e-07
1.46608e-07
1.46608e-07
1.46608e-07
1.46608e-07
1.46608e-07
1.46608e-07
1.46608e-07
1.46608e-07
1.46608e-07
1.46608e-07
1.46608e-07
1.46608e-07
1.46608e-07
1.46608e-07
1.46608e-07
1.46608e-07
1.46608e-07
1.46608e-07
1.46608e-07
1.46608e-07
1.46608e-07
1.46608e-07
1.46608e-07
1.46608e-07
1.46608e-07
1.46608e-07
1.46608e-07
1.46608e-07
1.46608e-07
1.46608e-07
1.46608e-07
1.46608e-07
1.46608e-07
1.46608e-07
1.46608e-07
1.46608e-07
1.46608e-07
1.46608e-07
1.46608e-07
1.46608e-07
1.46608e-07
1.46608e-07
1.46608e-07
1.46608e-07
1.46608e-07
1.46608e-07
1.46608e-07
1.46608e-07
1.46608e-07
1.46608e-07
1.46608e-07
1.46608e-07
1.46608e-07
1.46608e-07
1.46608e-07
1.46608e-07
1.46608e-07
1.46608e-07
1.46608e-07
1.46608e-07
1.46608e-07
1.46608e-07
1.46608e-07
1.46608e-07
1.46608e-07
1.46608e-07
1.46608e-07
1.46608e-07
1.46608e-07
1.46608e-07
1.46608e-07
1.46608e-07
1.46608e-07
1.46608e-07
1.46608e-07
1.46608e-07
1.46608e-07
1.46608e-07
1.46608e-07
1.46608e-07
1.46608e-07
1.46608e-07
1.46608e-07
1.46608e-07
1.46608e-07
1.46608e-07
1.46608e-07
1.46608e-07
1.46608e-07
1.46608e-07
1.46608e-07
1.46608e-07
1.46608e-07
1.46608e-07
1.46608e-07
1.46608e-07
1.46608e-07
1.46608e-07
1.46608e-07
1.46608e-07
1.46608e-07
1.46608e-07
1.46608e-07
1.46608e-07
1.46608e-07
1.46608e-07
1.46608e-07
1.46608e-07
1.46608e-07
1.46608e-07
1.46608e-07
1.46608e-07
1.46608e-07
1.46608e-07
1.46608e-07
1.46608e-07
1.46608e-07
1.46608e-07
1.46608e-07
1.46608e-07
1.46608e-07
1.46608e-07
1.46608e-07
1.46608e-07
1.46608e-07
1.46608e-07
1.46608e-07
1.46608e-07
1.46608e-07
1.46608e-07
1.46608e-07
1.46608e-07
1.46608e-07
1.46608e-07
1.46608e-07
1.46608e-07
1.46608e-07
1.46608e-07
1.46608e-07
1.46608e-07
1.46608e-07
1.46608e-07
1.46608e-07
1.46608e-07
1.46608e-07
1.46608e-07
1.46608e-07
1.46608e-07
1.46608e-07
1.46608e-07
1.46608e-07
1.46608e-07
1.46608e-07
1.46608e-07
1.46608e-07
1.46608e-07
1.46608e-07
1.46608e-07
1.46608e-07
1.46608e-07
1.46608e-07
1.46608e-07
1.46608e-07
1.46608e-07
1.46608e-07
1.46608e-07
1.46608e-07
1.46608e-07
1.46608e-07
1.46608e-07
1.46608e-07
1.46608e-07
1.46608e-07
1.46608e-07
1.46608e-07
1.46608e-07
1.46608e-07
1.46608e-07
1.46608e-07
1.46608e-07
1.46608e-07
1.46608e-07
1.46608e-07
1.46608e-07
1.46608e-07
1.46608e-07
1.46608e-07
1.46608e-07
1.46608e-07
1.46608e-07
1.46608e-07
1.46608e-07
1.46608e-07
1.46608e-07
1.46608e-07
1.46608e-07
1.46608e-07
1.46608e-07
1.46608e-07
1.46608e-07
1.46608e-07
1.46608e-07
1.46608e-07
1.46608e-07
1.46608e-07
1.46608e-07
1.46608e-07
1.46608e-07
1.46608e-07
1.46608e-07
1.46608e-07
1.46608e-07
1.46608e-07
1.46608e-07
1.46608e-07
1.46608e-07
1.46608e-07
1.46608e-07
1.46608e-07
1.46608e-07
1.46608e-07
1.46608e-07
1.46608e-07
1.46608e-07
1.46608e-07
1.46608e-07
1.46608e-07
1.46608e-07
1.46608e-07
1.46608e-07
1.46608e-07
1.46608e-07
1.46608e-07
1.46608e-07
1.46608e-07
1.46608e-07
1.46608e-07
1.46608e-07
1.46608e-07
1.46608e-07
1.46608e-07
1.46608e-07
1.46608e-07
1.46608e-07
1.46608e-07
1.46608e-07
1.46608e-07
1.46608e-07
1.46608e-07
1.46608e-07
1.46608e-07
1.46608e-07
1.46608e-07
1.46608e-07
1.46608e-07
1.46608e-07
1.46608e-07
1.46608e-07
1.46608e-07
1.46608e-07
1.46608e-07
1.46608e-07
1.46608e-07
1.46608e-07
1.46608e-07
1.46608e-07
1.46608e-07
1.46608e-07
1.46608e-07

VECTORS velocity float
0.00112659 0.000450814 -0.00167284
-0.00986084 0.00166739 -0.0220871
0.00183852 -0.00317244 -0.0085438
0.00849231 0.00781447 -0.0025618
0.00665849 -0.00733491 -0.00333131
0.00176629 0.0208495 0.00343446
0.00678467 0.00762028 0.00318192
0.00650893 0.0038054 0.00865021
-0.000967833 0.000801246 -0.00158948
-0.00401247 -0.00618449 0.0062152
0.00521752 0.00776709 4.10255e-05
-0.000846479 -0.00228652 0.00466543
-0.00156718 -0.000374874 0.000849341
0.00262868 0.00421801 -0.0043553
-0.00775457 -0.00536207 0.00195313
0.000981556 0.0297752 -0.000817665
-0.000430105 0.00162612 -0.000103533
-0.000544522 0.00247356 -0.00172883
-0.00536743 0.000729768 0.00695899
-0.00346743 -0.000863185 -0.000621493
-1.99239e-05 0.000267043 -0.00160552
-0.018139 -0.00868596 0.0103777
0.000891513 -0.00109769 -0.00318717
0.0120761 0.00479227 -0.0296338
-0.00308811 0.00147841 0.00172567
-0.00637014 0.00802929 0.00319152
1.24368e-05 0.0112767 7.24464e-05
-0.00325128 0.00396021 0.00230682
0.000480408 0.000676432 -0.00062198
0.000171032 -0.00105667 -0.00103927
0.000216823 0.00486382 0.000151744
-0.00106211 -0.00170527 0.000618061
-2.64714e-15 -1.17692e-14 -7.96376e-14
-0.000848113 0.0133402 0.0117344
-0.000951681 -0.00104626 0.000765746
0.00127398 0.00839776 -0.020294
-0.00682325 -0.0105925 -0.0109851
0.00731387 -0.00540908 0.0139472
-0.000567373 0.00283432 2.69626e-05
0.0031043 0.00232059 -0.00677031
0.00849477 0.0252614 0.00810628
0.0170775 -0.0110949 -0.013429
0.0049138 -0.00140406 0.00238373
-6.6885e-16 1.36841e-15 1.40093e-14
-0.00226462 -0.00394153 0.0168421
0.000684014 0.0290778 0.0116283
-0.000694534 0.000679978 3.8729e-06
0.00599633 0.0132431 0.00171895
0.00556271 0.00682863 -0.000192792
0.00177517 -0.00745854 -0.0131332
0.00560816 -0.00814481 0.0133103
0.00103378 0.0213159 -0.00744198
-0.00192305 0.014147 -0.02853
-0.00103664 -0.0067032 0.00454453
0.00493026 -0.00824529 -0.00694941
-0.00287779 0.000258944 4.41741e-05
0.00279123 -0.0263552 0.00595959
0.000831095 -0.000747823 -0.025276
0.00249614 0.000499746 0.00116969
-0.0125825 -0.0674858 0.0467175
-0.000949683 0.000597865 0.00147425
0.000975899 8.50545e-05 -0.000123649
0.0025004 0.0115158 0.0070575
-0.00128368 -0.000668594 0.00226821
-0.00613114 0.0031878 0.00818774
-0.000206981 -0.000190351 0.000463941
0.00024582 -0.000911641 -0.00149143
0.00432594 0.00249237 -0.00277026
0.000152823 -0.00879958 0.0224422
0.199582 -4.0885 8.07243
-0.00416415 0.000752753 0.00115446
0.0101535 -0.00603542 -0.0153916
5.72104e-07 -0.00782579 0.0135799
-0.00180197 -0.000486383 -0.000455363
0.00773678 0.00728309 -0.000316066
-0.00457503 0.000949523 -0.00803364
-1.45524e-08 1.41033e-08 -6.67805e-10
-0.000341005 0.000728131 0.0243566
0.0030475 0.00703796 0.00156885
0.00396972 -0.00112292 0.00274738
0.00258784 0.0146909 -0.0109278
0.217556 -0.0543546 -0.9994
-0.00115469 0.00128895 -0.00180075
0.000295891 0.00147659 0.0124312
-0.00177048 0.000728117 -0.00191759
0.000245438 0.00642286 0.000770184
0.00156386 -0.00905406 0.0042957
0.00576362 0.00262911 0.000777431
0.00621306 0.00823644 0.0252115
0.00109998 -0.00325953 0.0037277
0.000447331 0.000733635 -0.00117472
0.0032723 -0.0299655 0.0060725
0.000693745 -0.000199571 -0.000503342
0.000424079 0.004399 0.00280501
-1.54284 -10.9931 3.35948
-0.00287132 -0.00197718 -0.00238905
-0.00205242 0.000959228 0.00136608
0.00279907 0.000681649 -0.000304875
-0.00299844 0.00404155 0.0012339
0.000367807 0.00988725 0.0253897
-0.00783852 -0.000708628 0.0013365
0.0178493 0.00585798 0.00622415
0.00560817 0.00638968 -0.00198481
-0.00634037 0.0026846 1.60358e-06
-0.00373815 0.005588 0.00541072
-0.00555316 -0.000350447 -0.00158654
-0.0020537 0.00221383 0.0125782
0.00302857 0.00096626 0.000345199
0.00191777 -0.00101219 0.00172614
0.0254969 -0.0463363 0.0211112
3.24081e-05 0.00319652 -0.00388337
-0.00354511 0.0160181 -0.00153643
0.00890659 -0.00886971 -0.0134416
0.00692345 -0.00682534 0.00030245
0.0164827 0.00553403 0.00467691
9.5213e-05 -0.0140553 -0.0212447
0.00356342 0.00561274 0.0196271
0.000664768 -0.00454557 0.00358325
0.00115497 0.000477488 -0.00109102
-0.0765342 0.0712566 -0.510458
0.0397236 0.00828112 -0.0637119
0.0688792 0.0268614 -0.242913
0.00310217 0.00592166 0.0243454
0.00190821 0.0236023 -0.0298362
0.00189679 0.000831022 -0.0050142
0.00441968 0.00267257 -0.00303576
0.000468779 7.68866e-05 0.000268606
-7.54115e-05 0.0307792 -0.0193322
0.00280979 0.00814503 0.00461911
1.5417e-08 -2.2714e-08 -1.099e-10
-0.00763309 -0.000582383 -0.0157442
0.00230175 0.00421331 -8.18859e-05
0.00133875 1.63914e-05 -0.00211966
0.00156771 0.0198273 0.0091227
0.00310392 4.55252e-05 -0.0121585
0.000331835 0.00139859 -0.000139821
-0.000678213 -0.00154921 0.00112892
0.00242477 0.00673497 -0.00332825
-2.44136 7.6901 -18.4999
-0.0129203 0.00170194 -0.00714084
-0.0015895 6.73428e-05 -0.000213861
-0.00162843 -0.000464203 -0.00270603
0.00387536 0.0134257 0.021228
-0.00405748 0.0105737 0.00753489
0.000641017 0.00322998 0.0234046
-0.000288807 -0.0196353 -0.00980247
0.00141913 0.000438845 0.00062146
0.000146595 0.00236171 0.00034669
-0.0211381 0.00366893 0.00889013
-0.0016876 0.00166947 0.019262
0.00301295 -0.000511743 -0.00686633
-0.00112599 0.00157797 -1.38019e-06
0.000446231 0.00155908 0.00128347
-0.000374536 0.000143123 0.000377558
0.00435336 0.00707852 0.0253522
0.00197457 0.015454 -0.00845659
0.00538095 -0.00594789 0.0194048
-0.00325009 0.00539006 0.0043702
0.000362598 -0.0213229 -0.0100527
-0.0101667 0.021394 0.007795
0.00162812 0.0250289 -0.00449074
-0.000713006 -0.00056489 -0.000394999
-0.00140345 0.00773307 0.00180378
-0.00564569 -0.00861916 -0.00851356
0.00559066 -0.000542511 0.00135251
0.00271394 0.000815128 -0.0039917
2.89693e-15 8.31983e-15 1.95881e-13
-0.00261994 0.000976172 0.00130161
-0.00111278 0.00201047 -0.00699286
0.00425542 0.00566671 -0.00229718
0.00127817 0.000793484 0.00294014
-0.00345054 -0.00618367 -0.0119251
-0.00486503 0.0033951 -0.064993
0.000915125 -0.000465784 -0.00154625
0.00173578 0.00119352 0.00184055
0.000624037 0.000540904 -0.000775795
-0.00275378 0.00259667 0.00806978
0.00276684 0.0115606 -0.0261353
0.0368703 0.0091929 0.0831312
0.00542668 0.00280338 -0.00312121
0.0011729 -0.00140037 0.00157319
0.0105577 -0.00345883 0.00328818
0.00303863 -0.00582758 0.00396317
-0.000713821 0.00177619 -0.00116582
0.00179908 0.0135254 0.00953698
0.00070152 -0.000394024 -0.00129215
0.000138874 -0.0248223 0.00397813
-0.00253003 0.000286944 0.00017741
0.00448914 -0.00268652 -0.00122566
0.00220197 0.0234255 -0.00165108
0.00387431 0.00428921 0.00790225
0.00318783 0.00694718 0.00311266
-0.0102895 -0.0160371 0.0109436
0.174542 7.19881 -1.48903
0.00251597 -0.00129449 -0.00251146
0.000899641 -0.000157449 -0.00143908
0.00438262 -0.00153804 0.000144862
0.000469282 -0.000138293 0.000284003
0.00427783 0.00661756 0.00138991
-1.39834e-40 1.10744e-41 2.45735e-12
0.00350971 0.00857104 -0.00132562
0.000848651 -0.0145701 -0.011797
0.00868248 0.00520601 0.00286087
-0.00115435 0.000268899 -0.000947895
0.000693259 -0.000283752 -0.000263584
0.0125403 0.0022243 0.00380388
-0.00124646 -0.000902104 -0.000808085
0.00366048 0.00285264 -0.00204867
-0.00853057 -0.00245904 0.00879426
-0.00542081 -0.00937786 -0.013833
0.00214941 0.00379524 -0.00607851
-0.000894443 0.00111914 0.00313247
-0.000335258 -9.84511e-05 -0.000917913
0.000528974 -0.446717 0.157938
0.00162449 0.000365977 -0.0019588
0.00169348 0.00324106 0.00478814
0.00152076 0.00107081 0.00110854
-0.00264797 -0.0811382 0.0783991
-0.000506925 -0.0045296 -0.00593247
0.000430238 0.00635625 -0.00320097
0.00183371 -0.0107437 -0.00411202
-0.00150516 0.000177768 0.000240587
-0.00253016 0.00204163 -0.00206359
-0.000603772 -0.000628022 0.000616906
-0.0126027 0.0156082 0.036887
-0.000576481 -0.000313661 -0.000439621
-0.000539057 -8.13255e-05 0.000394016
-0.0140917 0.0044576 0.0240788
3.34789e-05 -0.0191785 0.00800088
-9.88051e-05 0.0240706 0.000490561
-0.0207259 -0.0658889 0.00245349
-0.00599258 -0.00146924 -0.000235173
0.00580927 -0.00785049 0.011785
0.00754308 -0.00470245 -0.00264539
0.00393844 0.00359426 -0.00290488
-0.00404527 -0.00227012 -0.00490278
-0.00696611 -0.00197893 0.00356789
0.000573284 0.00106171 0.00165034
-0.00435707 -0.00369609 0.00540975
0.00110909 -0.0015767 0.00297506
0.00132776 0.00184021 -0.00037659
-0.000491224 0.000132941 -0.0010545
0.00429049 -0.00113995 -0.00208833
0.00174426 0.000115302 0.0018823
0.00290966 -0.00525686 0.0117064
0.00381272 0.00596507 -0.000175601
0.000386439 0.0122248 -0.00315565
-0.000872665 0.000523651 -0.000777554
0.00234743 0.00565155 -0.00392252
0.0040667 0.00571274 -0.00300259
0.0038898 0.00759241 0.0141418
0.000654614 -0.014319 0.0185383
-0.00381905 0.000860641 0.00011773
-0.00595389 -0.0106917 -0.0271987
0.00379344 -0.00220215 -0.00124105
9.45709e-05 -0.000270049 -8.11135e-05
0.00162161 0.00170772 5.51127e-05
-0.00161191 3.13027e-05 -0.00184452
-2.04205e-05 -0.00267578 -0.00269723
1.59724e-05 0.0241819 -0.0100001
-0.00185649 0.000700556 -0.00746467
0.00160073 -0.000595673 -0.00277927
0.00159258 0.00137963 -0.0027758
-0.0079572 -0.00465671 -0.00856802
0.00504153 -0.00133201 0.00311572
0.00236159 0.000360446 -0.000543304
0.00276197 -0.0366455 -0.00888541
0.00285429 0.00322341 0.00173799
0.00373039 0.00438944 -0.0047917
0.00918374 -0.00304941 -0.00975384
0.00766419 0.0182624 -0.00826216
0.00024477 0.00412492 -0.00199183
-0.000663013 -0.000972944 -0.00124381
0.015727 -0.00246465 0.000405321
0.00323755 -0.00101314 0.000972849
0.014295 0.000614907 -0.0302077
0.00446901 0.00458267 -0.00206733
0.0010657 0.0185158 0.00530436
-0.000732297 -0.00111276 0.000222358
-0.000281371 -0.00342919 -0.00440885
0.0153611 0.0139735 -0.0185556
-0.00763939 -0.00554649 -0.00765936
0.0146185 -0.00758219 -0.00494549
0.00398991 0.00593858 -0.0037098
0.00384235 0.00831604 -0.00178276
0.00343544 0.000908023 -0.000700319
0.00289249 0.0155826 0.00812136
0.00891829 0.00594253 0.00405667
0.00586606 0.00762423 0.00417071
-4.06116e-05 0.0233057 -0.00579317
0.00447433 0.000678305 0.00849843
0.000779539 0.000905003 0.000696417
-0.00299431 -0.000672503 -0.00486944
0.01217 -0.00135434 -0.00473988
-0.00131785 0.000364905 -0.000817836
-0.00115777 0.000948553 0.00150392
0.00601826 -0.00475591 -0.00106307
0.00664799 0.00213258 -0.00561989
0.00023504 0.0428516 0.0667671
0.00137664 -5.02543e-05 -0.00209267
0.00795685 -0.000374566 0.00111917
0.0386275 0.00185174 0.00324207
0.0114045 0.001342 0.00811427
-0.00477607 -0.00152283 -0.00736249
0.00998903 0.00397847 -0.01049
0.00205234 0.000222756 -0.00247881
0.000767798 0.000794221 -0.00100347
-0.0018609 -0.000773583 -0.00221983
-0.000234947 0.00958117 -0.00702357
-0.00334632 0.00177548 0.0156853
0.00157744 0.00137158 0.000672236
-0.0243316 0.00665165 0.00374106
0.00108227 0.00059683 0.000615158