# vtk DataFile Version 3.0
LIGGGHTS particles timestep 4000000
ASCII
DATASET POLYDATA
POINTS 298 float
0.0146478 0.0220731 0.0162769
0.0180789 0.0239148 0.0136345
0.027744 0.0205584 0.0155176
0.0169488 0.0157023 0.014441
0.0259888 0.0226038 0.00915805
0.0255084 0.020851 0.00767952
0.0152791 0.014716 0.0145173
0.0234017 0.0166164 0.0157204
0.0172634 0.0242661 0.0182877
0.0208681 0.0243651 0.0138836
0.0205739 0.0172704 0.0164785
0.0212852 0.0239437 0.0129261
0.0198399 0.0245218 0.0136129
0.0231499 0.0155948 0.0143231
0.0166761 0.0187692 0.0171384
0.0224939 0.0161778 0.0159673
0.0161082 0.0235212 0.0174796
0.0242526 0.0151679 0.00962587
0.0191024 0.0230817 0.0178146
0.0212146 0.0142296 0.0146147
0.0201951 0.0136896 0.0138524
0.0164603 0.0212988 0.0177314
0.013696 0.0203113 0.0165989
0.0221112 0.0144543 0.0149963
0.0195881 0.0244591 0.01702
0.0223093 0.0213888 0.0152817
0.0295673 0.0147755 0.0113339
0.0179737 0.0194329 0.0160906
0.018161 0.0223825 0.0155927
0.0161366 0.023171 0.0165422
0.0234025 0.0176289 0.0157183
0.0175138 0.0216077 0.0154784
0.0454257 0.0173169 0.00620813
0.0249109 0.0189831 0.0175936
0.021806 0.0200553 0.0165246
0.0281242 0.0187282 0.0158246
0.0201695 0.0147221 0.0155477
0.0201578 0.0223194 0.0156288
0.0152158 0.0215837 0.0169438
0.0186564 0.0141037 0.0127991
0.0141328 0.0193726 0.0177206
0.0160945 0.0194735 0.0166756
0.0230467 0.02017 0.0166154
0.0487553 0.0195855 0.00596623
0.020881 0.0235825 0.0156954
0.024395 0.0157746 0.015561
0.0211565 0.0238427 0.0147703
0.0228724 0.0213696 0.0161164
0.0171567 0.015075 0.0152287
0.0275629 0.0212634 0.0151986
0.0219601 0.0229514 0.0147174
0.0292407 0.0150483 0.0128447
0.0213061 0.0232843 0.0125586
0.0210834 0.0229843 0.00973281
0.0179116 0.0157105 0.0153904
0.018089 0.021047 0.0173002
0.0172707 0.0240298 0.0130693
0.027959 0.0196913 0.0157479
0.0176913 0.0141233 0.0141929
0.0191399 0.0151266 0.0160882
0.0196005 0.0168457 0.016293
0.0175897 0.0229 0.0162399
0.0268748 0.0227593 0.00923778
0.0214228 0.0236808 0.0168487
0.0167376 0.0233737 0.0125426
0.0243588 0.0168342 0.0153613
0.015682 0.0220344 0.016035
0.021071 0.0148525 0.0159743
0.0236562 0.0177257 0.0166817
0.0181378 0.0155061 0.0168651
0.0169329 0.0141687 0.013543
0.0209165 0.0151511 0.0150323
0.0176866 0.0189051 0.0169323
0.0183073 0.0149462 0.0132095
0.022673 0.0200542 0.00582605
0.01786 0.0178883 0.0167591
0.0235951 0.0210728 0.015493
0.0224351 0.0237067 0.0150443
0.0223522 0.018047 0.0158297
0.0205691 0.0177646 0.0173766
0.0133606 0.0176195 0.0165828
0.0191606 0.0223664 0.0155694
0.0138713 0.0193367 0.0167468
0.0218631 0.0205838 0.0156744
0.0213139 0.0165996 0.0162686
0.0233666 0.0165747 0.0170436
0.02375 0.0201362 0.0158283
0.0175531 0.014615 0.0119493
0.0163719 0.0240487 0.0144161
0.0172979 0.016455 0.0151239
0.0219027 0.016401 0.0170882
0.0284569 0.0174298 0.0154855
0.020169 0.023983 0.0145455
0.0224977 0.0235895 0.0140591
0.0179595 0.0201812 0.0167541
0.0179443 0.0144729 0.0150949
0.019575 0.0178816 0.0168577
0.0157493 0.0165383 0.0170688
0.0184741 0.024332 0.0170009
0.0197723 0.0207933 0.0164621
0.0203442 0.0146588 0.014374
0.0160778 0.0143914 0.0140108
0.0215818 0.0158188 0.0156779
0.0219753 0.0217965 0.0162329
0.0186102 0.0240924 0.0128334
0.0175336 0.0242351 0.0173256
0.0195206 0.0234396 0.0168961
0.0240348 0.0195354 0.00581891
0.0204765 0.0233995 0.0114288
0.0209049 0.0140966 0.0132661
0.00950387 0.00489651 0.0458189
0.0250018 0.0217891 0.0164394
0.0160156 0.0231574 0.0131996
0.0171592 0.0151381 0.0136393
0.0132766 0.0163421 0.0159861
0.0176686 0.0142423 0.0128698
0.0183068 0.0238522 0.0146061
0.0258198 0.0181805 0.0166806
0.0229718 0.0230687 0.0156558
0.0227162 0.0178678 0.0172038
0.0248475 0.0201155 0.00587393
0.0230506 0.0146678 0.0147255
0.0227576 0.0153578 0.0153904
0.0138209 0.0221961 0.015721
0.020899 0.0220485 0.0169886
0.0215987 0.0219958 0.0148399
0.0152487 0.0228715 0.0137741
0.0162158 0.0185656 0.0162741
0.0273577 0.0219353 0.0145373
0.0208314 0.0192256 0.0168053
0.0204241 0.0239814 0.0132006
0.0181239 0.0233952 0.0169304
0.0199086 0.0198299 0.0166987
0.0206038 0.0160461 0.0158328
0.0237711 0.0150015 0.0153961
0.0268821 0.0231493 0.012886
0.0175043 0.0236563 0.0151726
0.0116767 0.0197772 0.0253993
0.0242875 0.0206635 0.0165232
0.0244411 0.0172668 0.016259
0.0170461 0.0197678 0.0167742
0.0248194 0.0181886 0.0166677
0.0169508 0.0207261 0.016505
0.0160264 0.023591 0.0152318
0.0249859 0.0164286 0.0160425
0.0296879 0.0153372 0.0136081
0.0215642 0.0145628 0.0167964
0.0192658 0.0142726 0.0137217
0.0240146 0.0191787 0.0159432
0.0256496 0.0193665 0.0167646
0.0202039 0.0230801 0.014982
0.0213611 0.0227068 0.0163929
0.0186112 0.0160165 0.0147449
0.0217399 0.0174776 0.0165599
0.0198672 0.01401 0.0129672
0.0557224 0.0193212 0.00585087
0.0210635 0.0226551 0.0153687
0.01976 0.0156324 0.015487
0.0220816 0.0234107 0.0131247
0.0172781 0.0177462 0.0159558
0.0202962 0.0230356 0.0173869
0.024061 0.0162743 0.0163898
0.0170811 0.0220396 0.0162697
0.0193862 0.0235327 0.0154111
0.0155339 0.0216307 0.0151107
0.0190813 0.0240666 0.0162524
0.0227678 0.0162797 0.0149908
0.0159999 0.0204688 0.016678
0.0232231 0.0232171 0.0147043
0.0182985 0.0195051 0.0174501
0.0162173 0.0165314 0.0256809
0.0199139 0.0188268 0.0167658
0.0154516 0.0153607 0.0152639
0.0186074 0.0180729 0.0174188
0.0154016 0.0225607 0.0168373
0.0186467 0.0140962 0.0144869
0.0144926 0.0151143 0.0149891
0.0202146 0.0230942 0.0162582
0.0228202 0.017192 0.0164741
0.0240293 0.0220221 0.0160226
0.0205252 0.0241561 0.016847
0.0225658 0.0171229 0.0155096
0.0172023 0.0236612 0.0139867
0.0163978 0.0226656 0.0157197
0.0218862 0.0152636 0.0191405
0.0149736 0.0178118 0.0166254
0.0365933 0.0210052 0.0435188
0.0187525 0.0207714 0.0165957
0.0179669 0.017026 0.0156889
0.0211823 0.0227355 0.0141358
0.0146502 0.022193 0.017501
0.0186814 0.0229675 0.0162189
0.0241249 0.0156062 0.0193894
0.0200049 0.0240948 0.0124427
0.0184012 0.0237111 0.0156117
0.0195347 0.0143479 0.0148718
0.0189754 0.0161477 0.0158337
0.0231544 0.0186342 0.0159397
0.0200421 0.0240468 0.0159777
0.022891 0.0224096 0.0164608
0.0221529 0.0188974 0.0163165
0.0172481 0.0225118 0.0152086
0.0229407 0.0229015 0.0174993
0.0200214 0.0193804 0.0175931
0.0162476 0.0149305 0.0148382
0.0200574 0.0247771 0.0202244
0.0205485 0.021016 0.00766246
0.0239565 0.018676 0.0168062
0.0194756 0.0224768 0.0165814
0.0237577 0.0161699 0.0148996
0.0223216 0.0232311 0.0165398
0.0127528 0.0206878 0.0165023
0.0152533 0.0230136 0.0177163
0.0265251 0.0233964 0.0112924
0.0220091 0.0228076 0.0137738
0.0199777 0.0155161 0.0164931
0.0187481 0.0143078 0.0156673
0.0136763 0.021097 0.017217
0.0201624 0.0229279 0.00964627
0.0167531 0.0231869 0.0147087
0.0227284 0.0224616 0.0143463
0.0215455 0.0231753 0.0181679
0.0165622 0.0159656 0.0156489
0.0242303 0.0181731 0.0158536
0.0210067 0.0218666 0.0159811
0.0186602 0.0229903 0.0149693
0.0154675 0.0208551 0.017609
0.0170791 0.0190167 0.016114
0.0173908 0.0157931 0.0162407
0.0187759 0.0187951 0.0167462
0.0286896 0.0188118 0.00592076
0.0220553 0.015017 0.0160438
0.0235732 0.0147505 0.0114311
0.0193089 0.0234702 0.0143789
0.0254307 0.0172723 0.0164435
0.0155434 0.0198771 0.0174096
0.0222817 0.022371 0.015466
0.0162295 0.021465 0.016682
0.0176308 0.0238988 0.0162206
0.0201268 0.0217288 0.016436
0.0172153 0.0214896 0.017094
0.0232716 0.0218695 0.0149786
0.0245102 0.0167317 0.00787222
0.0147895 0.0159497 0.0157469
0.0183139 0.021899 0.0164592
0.016384 0.022367 0.017111
0.0209599 0.0230807 0.0132296
0.0173711 0.0128998 0.0196664
0.0178614 0.0210375 0.0162282
0.0194435 0.0239662 0.0131095
0.0165475 0.0172008 0.0155453
0.0214739 0.0236173 0.0138457
0.0191258 0.0192695 0.00716019
0.0194368 0.0207017 0.00761721
0.0233795 0.0148287 0.0124195
0.0142493 0.0211634 0.016395
0.0181603 0.0182073 0.0158602
0.0203787 0.0232761 0.010512
0.0154544 0.0225682 0.014817
0.0209458 0.0235905 0.011962
0.0188235 0.015051 0.014896
0.015701 0.0210464 0.0158973
0.0167841 0.0239038 0.016753
0.0218178 0.0232349 0.0156762
0.0168925 0.0195971 0.0177926
0.0225121 0.0197294 0.0158942
0.0189346 0.0243021 0.01397
0.0198881 0.0222684 0.00863644
0.0213554 0.0210317 0.0164113
0.020828 0.0202195 0.0166614
0.0230013 0.0191412 0.0167879
0.019936 0.0143505 0.0164462
0.0256264 0.0209822 0.0167131
0.014824 0.0196428 0.0167534
0.0166281 0.0213046 0.0157555
0.0281076 0.00525065 0.0496231
0.0188043 0.0146136 0.0119517
0.0205627 0.0210787 0.0171016
0.0150735 0.0234598 0.0149988
0.0189098 0.0204774 0.0204485
0.0188631 0.0180486 0.00728777
0.0238741 0.022684 0.0152862
0.0122614 0.0198328 0.0166685
0.0191918 0.021542 0.0161347
0.0150966 0.0227825 0.0157307
0.0179631 0.0149134 0.0159926
0.0138513 0.015667 0.0155211
0.0194027 0.020718 0.0173964
0.0164638 0.02195 0.0150244
0.0142753 0.0228757 0.0151452
0.0150146 0.0206242 0.0167472
0.0262106 0.023038 0.00984101
0.0219724 0.0143902 0.0139823
0.0171528 0.0205477 0.0174788
0.0164846 0.0245994 0.0208528
0.0189089 0.0197852 0.0167092
0.013315 0.0214522 0.0161852
0.0180289 0.015155 0.0141934

VERTICES 298 596
1 0
1 1
1 2
1 3
1 4
1 5
1 6
1 7
1 8
1 9
1 10
1 11
1 12
1 13
1 14
1 15
1 16
1 17
1 18
1 19
1 20
1 21
1 22
1 23
1 24
1 25
1 26
1 27
1 28
1 29
1 30
1 31
1 32
1 33
1 34
1 35
1 36
1 37
1 38
1 39
1 40
1 41
1 42
1 43
1 44
1 45
1 46
1 47
1 48
1 49
1 50
1 51
1 52
1 53
1 54
1 55
1 56
1 57
1 58
1 59
1 60
1 61
1 62
1 63
1 64
1 65
1 66
1 67
1 68
1 69
1 70
1 71
1 72
1 73
1 74
1 75
1 76
1 77
1 78
1 79
1 80
1 81
1 82
1 83
1 84
1 85
1 86
1 87
1 88
1 89
1 90
1 91
1 92
1 93
1 94
1 95
1 96
1 97
1 98
1 99
1 100
1 101
1 102
1 103
1 104
1 105
1 106
1 107
1 108
1 109
1 110
1 111
1 112
1 113
1 114
1 115
1 116
1 117
1 118
1 119
1 120
1 121
1 122
1 123
1 124
1 125
1 126
1 127
1 128
1 129
1 130
1 131
1 132
1 133
1 134
1 135
1 136
1 137
1 138
1 139
1 140
1 141
1 142
1 143
1 144
1 145
1 146
1 147
1 148
1 149
1 150
1 151
1 152
1 153
1 154
1 155
1 156
1 157
1 158
1 159
1 160
1 161
1 162
1 163
1 164
1 165
1 166
1 167
1 168
1 169
1 170
1 171
1 172
1 173
1 174
1 175
1 176
1 177
1 178
1 179
1 180
1 181
1 182
1 183
1 184
1 185
1 186
1 187
1 188
1 189
1 190
1 191
1 192
1 193
1 194
1 195
1 196
1 197
1 198
1 199
1 200
1 201
1 202
1 203
1 204
1 205
1 206
1 207
1 208
1 209
1 210
1 211
1 212
1 213
1 214
1 215
1 216
1 217
1 218
1 219
1 220
1 221
1 222
1 223
1 224
1 225
1 226
1 227
1 228
1 229
1 230
1 231
1 232
1 233
1 234
1 235
1 236
1 237
1 238
1 239
1 240
1 241
1 242
1 243
1 244
1 245
1 246
1 247
1 248
1 249
1 250
1 251
1 252
1 253
1 254
1 255
1 256
1 257
1 258
1 259
1 260
1 261
1 262
1 263
1 264
1 265
1 266
1 267
1 268
1 269
1 270
1 271
1 272
1 273
1 274
1 275
1 276
1 277
1 278
1 279
1 280
1 281
1 282
1 283
1 284
1 285
1 286
1 287
1 288
1 289
1 290
1 291
1 292
1 293
1 294
1 295
1 296
1 297

POINT_DATA 298
SCALARS id int 1
LOOKUP_TABLE default
1
2
3
4
5
6
7
8
9
10
11
12
13
14
15
16
17
18
19
21
22
23
24
25
26
27
28
29
31
33
34
35
36
37
38
39
40
41
42
43
44
45
46
47
49
50
51
52
53
54
55
56
57
58
59
60
61
62
63
64
65
66
67
69
70
71
72
73
75
76
77
78
79
81
82
85
86
87
88
89
90
91
92
93
94
95
96
97
98
99
100
101
102
103
104
105
107
109
111
112
113
115
116
117
118
119
120
121
122
123
124
126
127
129
130
133
134
135
136
137
138
139
140
141
142
143
144
146
147
148
149
150
151
152
153
154
155
156
157
158
159
160
161
162
163
164
166
167
168
169
170
171
172
174
175
176
177
178
179
180
181
182
183
184
185
186
188
189
190
191
192
193
194
196
197
198
200
201
203
206
207
208
209
210
212
213
215
216
217
218
219
220
221
222
223
224
225
227
228
229
230
231
232
234
236
237
238
239
240
241
242
243
244
246
247
248
249
250
251
252
253
255
256
257
258
259
260
261
262
263
264
266
267
268
270
271
272
273
276
277
278
279
280
281
282
283
284
285
287
288
289
290
291
292
293
294
296
297
298
299
300
301
302
303
304
305
306
307
308
309
311
312
313
314
315
316
317
319
320
321
322
323
324
325
326
327
328
329
331
332
333
334
335
336
338
339
340
341

SCALARS type int 1
LOOKUP_TABLE default
1
1
1
1
1
1
1
1
1
1
1
1
1
1
1
1
1
1
1
1
1
1
1
1
1
1
1
1
1
1
1
1
1
1
1
1
1
1
1
1
1
1
1
1
1
1
1
1
1
1
1
1
1
1
1
1
1
1
1
1
1
1
1
1
1
1
1
1
1
1
1
1
1
1
1
1
1
1
1
1
1
1
1
1
1
1
1
1
1
1
1
1
1
1
1
1
1
1
1
1
1
1
1
1
1
1
1
1
1
1
1
1
1
1
1
1
1
1
1
1
1
1
1
1
1
1
1
1
1
1
1
1
1
1
1
1
1
1
1
1
1
1
1
1
1
1
1
1
1
1
1
1
1
1
1
1
1
1
1
1
1
1
1
1
1
1
1
1
1
1
1
1
1
1
1
1
1
1
1
1
1
1
1
1
1
1
1
1
1
1
1
1
1
1
1
1
1
1
1
1
1
1
1
1
1
1
1
1
1
1
1
1
1
1
1
1
1
1
1
1
1
1
1
1
1
1
1
1
1
1
1
1
1
1
1
1
1
1
1
1
1
1
1
1
1
1
1
1
1
1
1
1
1
1
1
1
1
1
1
1
1
1
1
1
1
1
1
1
1
1
1
1
1
1
1
1
1
1
1
1
1
1
1
1
1
1
1
1
1
1
1
1
1
1
1
1
1
1

SCALARS radius float 1
LOOKUP_TABLE default
0.0005
0.0005
0.0005
0.0005
0.0005
0.0005
0.0005
0.0005
0.0005
0.0005
0.0005
0.0005
0.0005
0.0005
0.0005
0.0005
0.0005
0.0005
0.0005
0.0005
0.0005
0.0005
0.0005
0.0005
0.0005
0.0005
0.0005
0.0005
0.0005
0.0005
0.0005
0.0005
0.0005
0.0005
0.0005
0.0005
0.0005
0.0005
0.0005
0.0005
0.0005
0.0005
0.0005
0.0005
0.0005
0.0005
0.0005
0.0005
0.0005
0.0005
0.0005
0.0005
0.0005
0.0005
0.0005
0.0005
0.0005
0.0005
0.0005
0.0005
0.0005
0.0005
0.0005
0.0005
0.0005
0.0005
0.0005
0.0005
0.0005
0.0005
0.0005
0.0005
0.0005
0.0005
0.0005
0.0005
0.0005
0.0005
0.0005
0.0005
0.0005
0.0005
0.0005
0.0005
0.0005
0.0005
0.0005
0.0005
0.0005
0.0005
0.0005
0.0005
0.0005
0.0005
0.0005
0.0005
0.0005
0.0005
0.0005
0.0005
0.0005
0.0005
0.0005
0.0005
0.0005
0.0005
0.0005
0.0005
0.0005
0.0005
0.0005
0.0005
0.0005
0.0005
0.0005
0.0005
0.0005
0.0005
0.0005
0.0005
0.0005
0.0005
0.0005
0.0005
0.0005
0.0005
0.0005
0.0005
0.0005
0.0005
0.0005
0.0005
0.0005
0.0005
0.0005
0.0005
0.0005
0.0005
0.0005
0.0005
0.0005
0.0005
0.0005
0.0005
0.0005
0.0005
0.0005
0.0005
0.0005
0.0005
0.0005
0.0005
0.0005
0.0005
0.0005
0.0005
0.0005
0.0005
0.0005
0.0005
0.0005
0.0005
0.0005
0.0005
0.0005
0.0005
0.0005
0.0005
0.0005
0.0005
0.0005
0.0005
0.0005
0.0005
0.0005
0.0005
0.0005
0.0005
0.0005
0.0005
0.0005
0.0005
0.0005
0.0005
0.0005
0.0005
0.0005
0.0005
0.0005
0.0005
0.0005
0.0005
0.0005
0.0005
0.0005
0.0005
0.0005
0.0005
0.0005
0.0005
0.0005
0.0005
0.0005
0.0005
0.0005
0.0005
0.0005
0.0005
0.0005
0.0005
0.0005
0.0005
0.0005
0.0005
0.0005
0.0005
0.0005
0.0005
0.0005
0.0005
0.0005
0.0005
0.0005
0.0005
0.0005
0.0005
0.0005
0.0005
0.0005
0.0005
0.0005
0.0005
0.0005
0.0005
0.0005
0.0005
0.0005
0.0005
0.0005
0.0005
0.0005
0.0005
0.0005
0.0005
0.0005
0.0005
0.0005
0.0005
0.0005
0.0005
0.0005
0.0005
0.0005
0.0005
0.0005
0.0005
0.0005
0.0005
0.0005
0.0005
0.0005
0.0005
0.0005
0.0005
0.0005
0.0005
0.0005
0.0005
0.0005
0.0005
0.0005
0.0005
0.0005
0.0005
0.0005
0.0005
0.0005
0.0005
0.0005
0.0005
0.0005
0.0005
0.0005
0.0005
0.0005
0.0005
0.0005
0.0005
0.0005
0.0005
0.0005
0.0005
0.0005
0.0005
0.0005
0.0005
0.0005
0.0005

SCALARS mass float 1
LOOKUP_TABLE default
1.46608e-07
1.46608e-07
1.46608e-07
1.46608e-07
1.46608e-07
1.46608e-07
1.46608e-07
1.46608e-07
1.46608e-07
1.46608e-07
1.46608e-07
1.46608e-07
1.46608e-07
1.46608e-07
1.46608e-07
1.46608e-07
1.46608e-07
1.46608e-07
1.46608e-07
1.46608e-07
1.46608e-07
1.46608e-07
1.46608e-07
1.46608e-07
1.46608e-07
1.46608e-07
1.46608e-07
1.46608e-07
1.46608e-07
1.46608e-07
1.46608e-07
1.46608e-07
1.46608e-07
1.46608e-07
1.46608e-07
1.46608e-07
1.46608e-07
1.46608e-07
1.46608e-07
1.46608e-07
1.46608e-07
1.46608e-07
1.46608e-07
1.46608e-07
1.46608e-07
1.46608e-07
1.46608e-07
1.46608e-07
1.46608e-07
1.46608e-07
1.46608e-07
1.46608e-07
1.46608e-07
1.46608e-07
1.46608e-07
1.46608e-07
1.46608e-07
1.46608e-07
1.46608e-07
1.46608e-07
1.46608e-07
1.46608e-07
1.46608e-07
1.46608e-07
1.46608e-07
1.46608e-07
1.46608e-07
1.46608e-07
1.46608e-07
1.46608e-07
1.46608e-07
1.46608e-07
1.46608e-07
1.46608e-07
1.46608e-07
1.46608e-07
1.46608e-07
1.46608e-07
1.46608e-07
1.46608e-07
1.46608e-07
1.46608e-07
1.46608e-07
1.46608e-07
1.46608e-07
1.46608e-07
1.46608e-07
1.46608e-07
1.46608e-07
1.46608e-07
1.46608e-07
1.46608e-07
1.46608e-07
1.46608e-07
1.46608e-07
1.46608e-07
1.46608e-07
1.46608e-07
1.46608e-07
1.46608e-07
1.46608e-07
1.46608e-07
1.46608e-07
1.46608e-07
1.46608e-07
1.46608e-07
1.46608e-07
1.46608e-07
1.46608e-07
1.46608e-07
1.46608e-07
1.46608e-07
1.46608e-07
1.46608e-07
1.46608e-07
1.46608e-07
1.46608e-07
1.46608e-07
1.46608e-07
1.46608e-07
1.46608e-07
1.46608e-07
1.46608e-07
1.46608e-07
1.46608e-07
1.46608e-07
1.46608e-07
1.46608e-07
1.46608e-07
1.46608e-07
1.46608e-07
1.46608e-07
1.46608e-07
1.46608e-07
1.46608e-07
1.46608e-07
1.46608e-07
1.46608e-07
1.46608e-07
1.46608e-07
1.46608e-07
1.46608e-07
1.46608e-07
1.46608e-07
1.46608e-07
1.46608e-07
1.46608e-07
1.46608e-07
1.46608e-07
1.46608e-07
1.46608e-07
1.46608e-07
1.46608e-07
1.46608e-07
1.46608e-07
1.46608e-07
1.46608e-07
1.46608e-07
1.46608e-07
1.46608e-07
1.46608e-07
1.46608e-07
1.46608e-07
1.46608e-07
1.46608e-07
1.46608e-07
1.46608e-07
1.46608e-07
1.46608e-07
1.46608e-07
1.46608e-07
1.46608e-07
1.46608e-07
1.46608e-07
1.46608e-07
1.46608e-07
1.46608e-07
1.46608e-07
1.46608e-07
1.46608e-07
1.46608e-07
1.46608e-07
1.46608e-07
1.46608e-07
1.46608e-07
1.46608e-07
1.46608e-07
1.46608e-07
1.46608e-07
1.46608e-07
1.46608e-07
1.46608e-07
1.46608e-07
1.46608e-07
1.46608e-07
1.46608e-07
1.46608e-07
1.46608e-07
1.46608e-07
1.46608e-07
1.46608e-07
1.46608e-07
1.46608e-07
1.46608e-07
1.46608e-07
1.46608e-07
1.46608e-07
1.46608e-07
1.46608e-07
1.46608e-07
1.46608e-07
1.46608e-07
1.46608e-07
1.46608e-07
1.46608e-07
1.46608e-07
1.46608e-07
1.46608e-07
1.46608e-07
1.46608e-07
1.46608e-07
1.46608e-07
1.46608e-07
1.46608e-07
1.46608e-07
1.46608e-07
1.46608e-07
1.46608e-07
1.46608e-07
1.46608e-07
1.46608e-07
1.46608e-07
1.46608e-07
1.46608e-07
1.46608e-07
1.46608e-07
1.46608e-07
1.46608e-07
1.46608e-07
1.46608e-07
1.46608e-07
1.46608e-07
1.46608e-07
1.46608e-07
1.46608e-07
1.46608e-07
1.46608e-07
1.46608e-07
1.46608e-07
1.46608e-07
1.46608e-07
1.46608e-07
1.46608e-07
1.46608e-07
1.46608e-07
1.46608e-07
1.46608e-07
1.46608e-07
1.46608e-07
1.46608e-07
1.46608e-07
1.46608e-07
1.46608e-07
1.46608e-07
1.46608e-07
1.46608e-07
1.46608e-07
1.46608e-07
1.46608e-07
1.46608e-07
1.46608e-07
1.46608e-07
1.46608e-07
1.46608e-07
1.46608e-07
1.46608e-07
1.46608e-07
1.46608e-07
1.46608e-07
1.46608e-07
1.46608e-07
1.46608e-07
1.46608e-07
1.46608e-07
1.46608e-07
1.46608e-07
1.46608e-07
1.46608e-07
1.46608e-07
1.46608e-07
1.46608e-07
1.46608e-07
1.46608e-07
1.46608e-07
1.46608e-07
1.46608e-07
1.46608e-07
1.46608e-07

VECTORS velocity float
0.0021542 -0.00638941 -0.00625938
0.00086973 -0.000871115 -0.000756271
0.000818504 0.022041 -0.00778454
0.00438113 -0.0031265 0.00133485
0.00230111 -0.00915535 -0.0131951
-0.000221678 -0.0222015 -0.0132696
0.000248482 -0.000585117 0.000564674
-0.000109202 0.0134621 -0.0060146
-0.0143826 0.0111519 0.00842522
0.00441422 -0.00120833 0.0069284
-0.00177844 -0.00408731 0.017807
0.00201211 -0.00199893 0.00727736
-0.000565138 -2.95919e-05 0.00158278
-0.00407899 0.000513591 -0.000255789
-0.00017978 0.0274024 0.00592432
-0.00760142 0.00408779 0.00972011
-0.00508717 0.0136435 0.00141203
0.00131578 -0.00744072 0.0125715
-0.0761954 -0.0203531 -0.03116
-0.00231385 -0.00487257 -0.0029721
-1.6731e-05 0.000496684 -0.000512765
-0.00166472 0.011828 -0.0168163
0.00321689 0.00239551 -0.00192451
-0.00136291 0.0111976 -0.0137936
0.000351078 0.000966696 -0.00213507
-0.0109772 -0.000700736 0.0186541
0.00934365 -0.00401617 -0.0014845
-0.000323119 0.0287927 -0.00458475
-0.00625419 0.00222341 -0.00049994
-0.00326225 0.0018677 -0.00101003
0.000982632 0.0223198 0.00793036
0.00473697 0.00494991 0.00124041
-3.4712e-15 -1.11521e-14 -7.97058e-14
0.0604448 -0.0761122 0.0448692
0.000786779 -0.0286902 0.0346227
0.000855121 0.022674 0.00225608
0.00172984 0.0023879 -0.0105488
-0.00294178 -0.014398 0.022014
-0.000149011 0.000480566 0.00198458
0.000974785 0.00201215 -0.00423617
0.0188171 0.0032448 -0.0319261
-0.00108902 0.0320199 -0.0055788
0.0104094 0.0305089 -0.0117969
-8.57726e-16 1.34181e-15 1.40034e-14
-0.00761603 -0.0134893 0.0414482
3.44567e-05 0.00030482 -0.000967488
-0.0218505 -0.0226659 0.0107538
0.0139393 -0.00287579 0.000978495
-0.00273353 0.00105443 -0.0056343
0.00115418 0.017473 -0.011979
-0.00447258 0.014624 0.0041105
0.000163076 0.00757743 0.024273
0.00515521 0.00380422 -0.00528495
4.42187e-06 -0.000568031 -6.78549e-05
-0.00070303 -0.00124751 -0.00102647
0.00962301 0.0110059 0.00310235
-3.11669e-05 -0.00132249 -2.85036e-05
0.000326705 0.0231951 -0.0037855
0.00176065 0.0020924 -0.0128861
-0.0156647 0.00770681 -0.0129773
-0.00816428 -0.00326942 0.0110357
-0.000583631 0.000726606 -0.0014404
0.00302502 -0.00765275 -0.011216
0.00658746 0.000255687 -0.0126717
8.2527e-05 0.000708301 -0.00163859
0.00115751 0.00700653 0.00331395
0.00341765 0.00605852 0.00214555
0.00307645 -0.00300687 -0.00852977
-0.00765178 -0.0492004 0.0207976
-0.0145612 0.0404788 -0.0462293
-0.00631393 0.00734724 -0.00978393
0.00655888 0.000405684 0.00469935
0.011531 -0.00311001 -0.0158614
-0.000967606 -0.00441285 0.00788855
2.78748e-14 -1.24896e-14 2.55018e-13
0.0214354 -0.0123182 -0.00208899
-0.0609611 -0.0154836 0.0363086
-0.000949222 0.00633836 -0.00339447
0.000795674 0.0232207 0.00570576
-0.0392275 -0.0242082 -0.0366068
-0.000294952 0.0169016 -0.0166195
-0.00415447 -0.000946897 -0.00474889
-0.00328343 0.00315752 -0.00154962
-0.00326829 -0.0107754 0.0137567
-0.00508907 0.0325607 -0.0352344
-0.00648364 -0.00987435 -0.0124742
0.0474194 -0.0295539 0.0737842
0.000236902 0.00199801 -0.00359254
-0.000502527 0.000358623 -7.12882e-06
0.00558365 0.0082772 -0.0019753
0.0167781 0.0413448 -0.0453653
-0.147146 0.0882708 -0.631609
-0.00217483 -0.0126971 -0.0250328
0.00971773 -0.0010265 0.00711238
0.0112185 0.0162759 0.0118431
0.0010243 -0.00213408 -0.00923111
-0.00931381 -0.011335 0.0394402
0.0030111 -0.036621 0.0385635
-0.0107442 0.00409113 0.00717266
-0.000234087 0.00283362 -0.000296351
-0.00143683 0.00201804 0.00585365
0.00123152 -0.00204846 0.00285767
-0.00985826 0.000428852 -0.00143945
0.0143406 -0.0107209 0.0398087
-0.000251113 8.71423e-05 -0.000918499
-0.0141244 0.00577495 0.0040166
-0.00680242 -0.000447297 0.00206691
-1.56182e-07 1.7441e-07 -1.44548e-08
0.00303939 -0.000210233 -0.0232035
-0.00341661 0.000540497 -0.00447025
-0.365845 -0.357984 0.481863
0.017308 0.0100623 0.115137
0.000602929 0.000383232 -0.000106316
0.00653927 0.000978007 -0.00295074
-0.00043777 0.000862782 -0.000170701
0.00173673 0.00183593 -0.00403299
0.000414897 0.00636789 0.000243891
0.0147851 0.0192653 0.00639772
0.0130653 -0.00403787 -0.0066034
0.0226024 0.0376185 -0.00259103
1.38653e-07 -2.33067e-07 -1.78908e-09
0.000375968 0.00571463 -0.0138663
-0.00780292 0.0155401 -0.023593
1.17093e-06 -0.0011155 -0.00122166
-0.00888825 -0.00786834 0.0212243
-0.041733 -0.0990655 0.0856277
0.000444734 6.87434e-07 -0.000517094
-0.000202268 0.0300451 0.00344777
0.000899856 0.0167102 -0.0166721
0.00794155 -0.0154314 -0.0343475
0.000947673 -0.00573773 0.0152746
0.00104316 -0.00143426 -0.00171586
-0.00263022 -0.00786426 -0.00168692
-0.00561167 -0.000196881 -0.000712688
-0.00354832 0.0078971 -0.0194602
0.000734552 0.0101295 -0.019585
0.00261227 0.00144289 -0.00053219
0.106184 0.00750453 -0.117743
0.0281956 -0.0199338 0.00231678
0.0101191 0.0124938 -0.000291858
0.00554325 0.0113956 0.00861814
0.00277611 0.00152644 0.0130507
0.0124228 0.0147189 0.00478733
-0.00034484 0.00038962 -9.58928e-05
0.00290198 0.00330439 -0.000378858
-5.09345e-05 0.0103094 0.0237158
0.00883192 -0.000333306 -0.00783701
-0.00587856 0.00328528 -0.0088075
0.0255728 -0.0678263 0.0399446
0.0260067 0.0183776 0.00027844
0.00563966 -0.0160335 0.0135177
-0.00911252 -0.00120066 0.0113324
0.00586692 0.0023943 0.0043294
-0.000246961 0.0269021 0.0149331
0.0012699 0.00128851 -0.00206114
2.9884e-15 8.33157e-15 1.95879e-13
-0.000646754 -0.0103519 0.018267
-0.0053653 -0.000274339 -0.000510059
0.00541572 -0.00288405 0.0038917
0.0116169 0.00936809 0.0053207
-0.0070674 -0.0305408 -0.0261987
-0.00161471 -0.00164183 -0.0114487
-0.000608275 0.000838934 -3.05161e-05
-0.0303744 0.00177979 0.026582
0.0041564 0.0015068 -0.000915351
-0.00752637 0.00691527 0.00324235
0.0012502 0.0134745 0.0150336
0.00652008 0.0309534 0.00476244
0.000849553 0.00262466 -0.00887205
0.00225429 5.30569e-05 -0.00484895
0.0498921 0.0971602 0.180885
-0.00145426 -0.010826 -0.000988277
-0.00324413 0.000520138 0.00319089
0.0353699 -0.018967 -0.0134418
0.00145093 0.0056642 0.00328271
-0.00258621 -0.000625072 -0.0113922
-0.000165481 -0.000554179 0.001237
-0.00210391 -0.0012731 0.0167083
0.00388581 0.0205988 0.0102296
-0.0314393 -0.196146 -0.157194
0.0036618 0.00154374 0.00575547
0.000764265 0.0212935 0.010588
-0.000647808 0.000273517 -0.00111869
0.000234215 0.00207047 -0.000723308
0.094468 -0.0796198 0.00256426
-4.03226e-07 0.0283309 0.00690099
6.24197e-135 -4.94344e-136 2.45735e-12
0.00651864 0.00336186 0.00354043
-0.00474221 -0.0331192 0.126297
0.00374596 0.00324878 -0.00526589
0.0026617 0.00212867 6.04182e-05
-0.000969359 -0.00373141 -0.00303015
-0.0927134 0.0313093 -0.0312061
0.00225611 -0.00340867 0.000679936
-0.0030755 0.00061642 0.000663862
-0.00492313 -0.00117117 -0.00213581
-0.0223565 -0.0120434 -0.0178676
1.41063e-05 0.0240411 0.00236062
-0.00255072 0.00908311 0.00951393
-0.0605822 -0.0253923 -0.0287268
0.00163701 0.0271221 -0.000990613
-0.00114883 0.00221289 -0.00336093
-0.0583195 0.0785782 0.109032
0.013684 -0.0100555 -0.00333168
-0.00550115 -0.00250405 0.0010235
-0.019105 -0.0919307 -0.220496
0.000730917 -0.00962479 -0.00681042
-0.00630584 -0.00761072 0.0518548
-0.0125036 -0.0145808 0.00549399
7.08029e-06 0.00376129 0.000915687
-0.0421152 0.0522071 0.0331017
0.000180344 -0.000722389 -0.00117241
0.0034505 0.00297633 0.000502423
0.000428906 -2.11904e-06 -0.0252997
0.00683399 -0.00577058 0.00678265
-0.00925662 -0.0100372 0.00571828
-0.00323245 0.000812683 -0.00793367
0.000863052 0.000538512 -3.5474e-05
0.00112025 -0.0102994 -0.0198286
-0.00228519 0.000441319 -0.00219547
0.00360445 0.00603029 -0.00416992
-0.0502946 -0.00932156 0.026466
-0.0187362 0.00379873 -0.00683304
-0.000130988 0.0255973 0.00522647
0.00824488 -0.0157483 0.0163753
-0.00105057 0.00497848 -0.00453557
0.0134061 0.0185879 -0.00453192
0.000247917 0.0274315 -0.00259424
0.0119982 0.0108674 -0.00392631
0.00780349 0.00710811 0.00325298
1.00444e-14 -5.18653e-17 1.17824e-13
0.00258677 0.00179491 -0.0159203
0.00012469 -0.00217778 0.0259437
0.00378554 0.00153166 -0.000292365
8.52127e-05 0.0150014 0.0042624
-0.00768761 0.028153 -0.00354471
-0.0209407 -0.000719604 0.0197458
-0.00839608 0.0278345 0.00795997
-0.0025885 -0.000410038 0.000639634
0.00279877 -0.00405298 0.0173574
0.00704906 0.0138899 0.00712396
0.0974384 0.00312603 0.0542132
0.000435716 -0.0204505 0.0134056
-0.000376999 -0.00159489 0.000467417
0.0136794 0.0122605 0.000575072
0.0407849 -0.0326948 -0.00548623
0.00921872 -0.000338929 0.0018866
-0.138924 -0.14214 -0.157327
0.013752 0.0119094 -0.000172732
-0.00031832 0.00308393 -0.00527855
0.00152496 0.0185628 0.00915992
0.0151648 -0.00158813 0.00595064
0.00133203 -0.0243933 -0.00194479
-0.000176789 -0.0230356 -0.0100972
0.000259215 0.00523555 0.0239747
0.000113798 -0.00529961 -0.00148109
0.0089594 0.0133444 0.00229122
0.00247777 -0.00171639 -0.0104851
0.0063311 0.00185677 0.00112495
-0.00397185 0.000142258 0.00173753
-0.010251 -0.00544993 -0.0261624
0.00429884 0.0062564 0.00371998
-0.00296983 -0.00225689 0.000230425
-0.00465158 0.00578163 0.00392723
-0.138069 0.15968 -0.00744516
0.00212541 0.024134 -0.00345203
-0.000480024 -0.0001429 -0.00163978
-0.000385094 -0.0139056 -0.016636
-0.00288423 -0.0133609 0.0146044
-0.0151457 -0.0252897 0.00723119
0.000654078 0.0286766 0.000245536
-0.00339208 -0.00306111 -0.0144611
-0.0241349 0.0240014 -0.0329475
-0.00214795 0.00655335 0.00167526
0.00534254 0.00480819 0.00304191
0.306296 -0.390149 0.93878
0.000355677 0.00198554 -0.00341594
0.00704261 -0.0154862 0.0265392
0.00025498 -5.15994e-05 -0.000520561
-0.0563476 -0.00813096 -0.13872
0.000778765 -0.0123964 0.00355151
-0.00100172 -0.00226587 -0.0591222
-0.000739552 -0.000288571 0.000685017
0.00320923 0.00552914 -0.00714866
0.00051172 0.000440224 -0.00127629
-0.0178052 -0.00567785 -0.0048698
0.000496553 0.00229202 -0.00289351
0.0134262 0.00138029 0.00734899
0.000749826 -0.000325649 -0.000977189
0.000103819 0.000607576 -0.000954663
-0.000843241 0.000122125 0.00508997
0.0053117 -0.00596751 -0.00995688
-0.00102857 0.000120523 -0.00057581
0.0157564 0.00411329 0.00284818
0.0117194 -0.105493 -0.228959
0.00117798 0.0100066 0.00103459
0.00163811 -0.000945841 -0.0028969
0.00720081 0.0109378 -0.0136708

VECTORS force float
0.0 0.0 -1.43822e-06
-8.48416e-07 4.71384e-06 8.28235e-06
1.15504e-07 1.99669e-07 -1.82653e-07
-4.6118e-07 -1.90455e-06 4.41951e-06
7.64564e-07 -2.19694e-06 -1.97712e-07
-8.06306e-12 -7.02884e-09 1.07133e-08
1.76469e-06 -1.17513e-06 1.54393e-06
1.15461e-07 -3.60812e-07 2.20952e-07
-5.48697e-06 9.62236e-07 5.33021e-06
-4.99972e-05 -3.22281e-05 6.7749e-05
0.0 0.0 -1.43822e-06
1.49435e-06 1.2534e-05 5.59832e-05
-1.24416e-05 -1.313e-06 1.47584e-05
0.0 0.0 -1.43822e-06
0.0 0.0 -1.43822e-06
0.0 0.0 -1.43822e-06
0.0 0.0 -1.43822e-06
-2.6092e-05 -8.77539e-07 1.60669e-06
0.0 0.0 -1.43822e-06
-2.57745e-07 -4.89638e-07 -7.82925e-07
-5.30683e-08 7.13315e-08 4.7072e-08
0.0 0.0 -1.43822e-06
1.9915e-08 -1.43055e-08 2.67831e-09
9.9303e-07 -1.66844e-07 -2.48312e-07
-5.78938e-07 2.70471e-07 -8.54838e-07
-1.35608e-06 -1.78384e-05 5.74656e-06
-2.08965e-05 -7.66958e-05 -2.18033e-05
1.05969e-06 -3.74694e-06 1.41238e-05
0.000110746 -3.31526e-06 4.46765e-05
1.21471e-06 2.46851e-06 -1.16237e-06
2.97454e-07 -2.54024e-07 -3.61013e-08
2.67035e-06 6.23711e-06 2.59929e-06
2.44674e-18 -8.91635e-19 6.50098e-20
0.0 0.0 -1.43822e-06
0.0 0.0 -1.43822e-06
-1.37408e-07 1.38646e-06 -3.46913e-08
2.23869e-07 -2.22486e-07 5.08227e-07
-1.52192e-06 -9.84323e-06 2.02718e-05
1.02943e-06 3.64621e-06 7.21654e-08
0.0 0.0 -1.43822e-06
0.0 0.0 -1.43822e-06
5.02642e-07 -5.73981e-06 2.06576e-07
0.0 0.0 -1.43822e-06
-4.40166e-19 6.51951e-20 -2.60463e-20
-4.16851e-06 2.92026e-05 -8.85514e-05
2.57874e-07 -1.77728e-07 -6.54945e-07
-2.63255e-07 -3.52116e-07 -1.12824e-06
-3.19719e-05 -4.38036e-05 0.000101663
-9.54652e-07 -2.87296e-06 1.06632e-06
1.09856e-08 1.49304e-07 -1.05525e-07
1.82197e-06 -1.92241e-05 -0.000151085