ITEM: TIMESTEP
3000000
ITEM: NUMBER OF ATOMS
290
ITEM: BOX BOUNDS ff ff ff
-0.02 0.43
-0.02 0.06
-0.02 0.1
ITEM: ATOMS id type x y z vx vy vz fx fy fz radius mass 
2 1 0.018092 0.0240805 0.0165211 -0.000279754 -0.000918449 -0.00279275 -4.12676e-07 1.07481e-06 1.23423e-07 0.0005 1.46608e-07 
3 1 0.0243362 0.0223052 0.0155742 0.000103096 0.00179781 -0.000238942 -8.10972e-08 -2.0539e-08 5.11225e-08 0.0005 1.46608e-07 
4 1 0.0165316 0.0206254 0.0174769 0.00158108 -0.01082 -0.000336464 0 0 -1.43822e-06 0.0005 1.46608e-07 
5 1 0.021785 0.0142125 0.0141022 0.00596714 0.00161213 0.00351513 -3.84341e-07 -5.51022e-07 3.19327e-07 0.0005 1.46608e-07 
6 1 0.018489 0.0237448 0.015667 0.00141272 -0.000441424 -0.00198878 -5.81463e-07 -2.82422e-07 1.26788e-07 0.0005 1.46608e-07 
8 1 0.0208547 0.015164 0.0154251 0.00593455 0.0132417 -0.00420459 -4.0953e-08 3.99874e-07 7.7172e-07 0.0005 1.46608e-07 
9 1 0.018151 0.0140511 0.0144646 -0.00339951 0.00336341 -0.00160996 0 0 -1.43822e-06 0.0005 1.46608e-07 
10 1 0.021902 0.0236195 0.0169343 0.000132481 -0.000138967 0.000153496 1.32481e-06 -4.55588e-07 2.61882e-07 0.0005 1.46608e-07 
11 1 0.015511 0.022363 0.0145632 0.00688481 0.00289374 0.00850078 -1.37227e-06 9.50339e-07 -6.28916e-06 0.0005 1.46608e-07 
12 1 0.0226979 0.015438 0.0153716 0.0046944 0.00245791 0.000155089 1.11338e-06 3.36332e-07 3.55696e-07 0.0005 1.46608e-07 
13 1 0.0180691 0.0240711 0.0130118 0.000197292 -0.00163462 0.000212243 1.48355e-07 -4.45174e-08 2.09106e-07 0.0005 1.46608e-07 
14 1 0.017748 0.0243512 0.0174201 -0.00115206 -0.00233007 -0.00310842 -1.37562e-06 3.43371e-07 -2.7165e-07 0.0005 1.46608e-07 
15 1 0.0220715 0.0207628 0.0156013 -0.00077476 -0.00255143 0.00207598 3.0134e-06 1.12975e-06 -3.72343e-07 0.0005 1.46608e-07 
19 1 0.0156655 0.0221336 0.0176799 0.00737976 -0.00451163 -0.016545 3.11348e-06 4.0202e-07 -1.54512e-06 0.0005 1.46608e-07 
20 1 0.0249828 0.0164872 0.0160261 0.00357767 0.00167928 0.00189638 8.82496e-07 4.18008e-07 8.78278e-07 0.0005 1.46608e-07 
21 1 0.0223524 0.0188717 0.0159398 0.00713638 -0.00178374 0.000787531 -2.58822e-07 9.12538e-07 5.59741e-07 0.0005 1.46608e-07 
22 1 0.0196711 0.0165373 0.0161155 -0.000682759 0.00801649 0.00343753 2.83835e-08 -9.76109e-08 -4.25599e-08 0.0005 1.46608e-07 
23 1 0.0164038 0.0238087 0.0139295 -0.000375714 -0.000414966 -0.000317911 2.02108e-06 2.61105e-06 2.88377e-06 0.0005 1.46608e-07 
24 1 0.020902 0.0229266 0.0167717 0.000103814 -0.00135365 -0.00131579 -3.92733e-07 -5.66689e-08 -8.92369e-07 0.0005 1.46608e-07 
26 1 0.0158026 0.0229662 0.0153051 0.00363069 0.0129452 0.00354955 5.11092e-06 6.80621e-06 1.00267e-05 0.0005 1.46608e-07 
27 1 0.0253937 0.0197715 0.00723733 0.000138424 -0.025257 -0.00603224 3.13711e-10 -3.48958e-09 1.32119e-08 0.0005 1.46608e-07 
28 1 0.023406 0.0231039 0.0148666 0.000267715 0.000523751 3.39677e-05 -2.66385e-07 9.36561e-08 -4.80907e-08 0.0005 1.46608e-07 
29 1 0.0235895 0.0178281 0.0157783 0.0068488 -0.00422686 0.00379801 -6.04859e-07 1.31412e-06 4.07147e-06 0.0005 1.46608e-07 
31 1 0.0203304 0.0237422 0.0154387 0.00327176 -0.00238433 -0.00339274 -1.56486e-08 -1.43307e-07 -9.90993e-08 0.0005 1.46608e-07 
32 1 0.0228638 0.0200284 0.0168201 0.000948717 0.000536765 -0.00241319 3.37769e-07 3.64988e-08 -3.80568e-07 0.0005 1.46608e-07 
33 1 0.0206498 0.0210744 0.0163849 -5.38005e-05 -0.000624422 -0.000983825 6.24192e-07 8.79773e-07 3.39496e-07 0.0005 1.46608e-07 
34 1 0.0191271 0.0205759 0.0174396 -0.00183086 -0.00226642 0.00050542 0 0 -1.43822e-06 0.0005 1.46608e-07 
35 1 0.020264 0.0227625 0.00935449 0.000337736 -0.011154 -0.0198716 1.51223e-09 -9.51228e-09 6.12611e-09 0.0005 1.46608e-07 
36 1 0.0147359 0.0225687 0.0179011 -0.00439793 -0.00814835 -0.00465485 4.71822e-07 -1.5568e-07 -9.70263e-07 0.0005 1.46608e-07 
37 1 0.0171931 0.0222468 0.0169695 0.00111339 -0.0032914 -0.0138365 0 0 -1.43822e-06 0.0005 1.46608e-07 
38 1 0.0211506 0.0156437 0.0162511 0.00639288 0.0127127 -0.00337421 8.57789e-08 3.44674e-07 4.32345e-07 0.0005 1.46608e-07 
39 1 0.0265214 0.0232758 0.0105 0.000360041 -0.00581934 -0.0232379 -3.8558e-09 -1.64565e-08 -1.02317e-08 0.0005 1.46608e-07 
40 1 0.0253419 0.0211326 0.0163428 -0.000327927 0.000585357 -0.000149612 -1.59036e-06 -9.20441e-07 -5.11148e-07 0.0005 1.46608e-07 
41 1 0.0227107 0.0232111 0.0173577 -0.000335493 -0.000228306 -0.00121967 -1.79361e-07 -1.51844e-07 -1.19729e-06 0.0005 1.46608e-07 
42 1 0.0210827 0.0141431 0.0133938 0.00444559 0.000184833 0.00521038 2.47163e-07 1.46685e-07 -7.10064e-08 0.0005 1.46608e-07 
43 1 0.0171052 0.0239966 0.0132423 0.000294151 0.000301955 0.000280427 -8.36312e-07 4.32495e-07 -2.72545e-06 0.0005 1.46608e-07 
44 1 0.0210752 0.023653 0.0161067 0.000113398 -0.000641219 -0.00111753 -1.039e-07 -2.60217e-07 -9.18879e-07 0.0005 1.46608e-07 
45 1 0.12014 0.0210465 0.00606171 3.62939e-16 8.22953e-15 -3.99459e-14 -1.18535e-20 5.29396e-23 -2.11758e-22 0.0005 1.46608e-07 
46 1 0.0218306 0.0240469 0.0178355 -0.00114723 0.000378805 -0.000545033 2.9803e-08 -4.91991e-07 -2.38761e-07 0.0005 1.46608e-07 
48 1 0.0205958 0.0197177 0.0167167 0.000900799 0.00204859 -0.000777964 -1.31268e-06 1.34184e-06 -3.98396e-07 0.0005 1.46608e-07 
49 1 0.0176985 0.0146146 0.0119641 0.00515816 -0.00103575 0.00297209 -1.47357e-07 4.99384e-07 -1.53579e-06 0.0005 1.46608e-07 
50 1 0.0162494 0.0244116 0.0186917 -0.00382817 -0.00259163 -0.00527798 2.63999e-07 -4.23102e-07 -8.64433e-07 0.0005 1.46608e-07 
53 1 0.0257836 0.0182796 0.016691 -0.00059208 -0.000740643 -0.000398633 2.57923e-08 4.61626e-07 1.50724e-08 0.0005 1.46608e-07 
54 1 0.0199569 0.0146646 0.0155737 0.00944942 0.00327406 0.00316031 9.46905e-08 3.94193e-07 4.98735e-08 0.0005 1.46608e-07 
57 1 0.0219444 0.0149961 0.0148849 0.00680207 5.22545e-05 -0.00118142 4.48313e-07 -4.43124e-07 1.87557e-07 0.0005 1.46608e-07 
58 1 0.0175094 0.0242561 0.0141136 0.000147733 0.000169514 -4.934e-05 -5.34288e-07 -8.00348e-07 3.12531e-07 0.0005 1.46608e-07 
59 1 0.02366 0.0213808 0.0152819 0.00447345 0.0122279 -0.00764856 -7.40112e-08 -6.19949e-07 -6.84915e-07 0.0005 1.46608e-07 
60 1 0.0249534 0.0177467 0.00741318 0.00124715 -0.0243842 0.0040222 1.84216e-08 1.74705e-08 3.17015e-08 0.0005 1.46608e-07 
61 1 0.0212751 0.0231922 0.014196 0.00420132 0.00363171 -0.00359787 -2.93584e-08 1.2809e-07 -3.40202e-07 0.0005 1.46608e-07 
62 1 0.0194492 0.0239362 0.0158698 0.00203014 -0.00251131 -0.00619588 1.32871e-06 6.68537e-07 1.14448e-06 0.0005 1.46608e-07 
63 1 0.0211803 0.0220763 0.0158537 0.00354492 -0.00246382 -0.00115665 -3.7384e-07 8.82097e-07 -4.58503e-07 0.0005 1.46608e-07 
64 1 0.0172878 0.0190861 0.0161689 0.00622916 0.0012858 0.00457626 3.20063e-06 2.77724e-06 -2.24582e-06 0.0005 1.46608e-07 
65 1 0.0220667 0.0234171 0.015043 -0.000743728 0.00552467 0.000791399 -2.00187e-07 -2.79399e-07 2.18191e-07 0.0005 1.46608e-07 
66 1 0.0190495 0.0143125 0.015822 0.00293063 0.0051048 -0.00888463 -1.10427e-07 2.30972e-07 -1.20598e-06 0.0005 1.46608e-07 
67 1 0.0179738 0.0159658 0.0146983 0.00313302 0.00795737 0.00776154 -1.35286e-06 1.31028e-07 1.92563e-06 0.0005 1.46608e-07 
69 1 0.0183757 0.0230709 0.0174573 -0.00327324 -0.00204116 -0.00531614 -8.9552e-08 -7.3375e-10 -9.36069e-07 0.0005 1.46608e-07 
70 1 0.0209144 0.018771 0.0167699 0.00203849 0.00254664 0.000222097 1.4796e-06 2.86446e-07 1.22278e-06 0.0005 1.46608e-07 
71 1 0.0167752 0.0169002 0.0154133 0.00463346 0.00670652 -0.00032883 1.06212e-07 3.59435e-08 1.25944e-06 0.0005 1.46608e-07 
72 1 0.0227647 0.0226728 0.0165156 0.00213321 -0.00126967 -0.000338358 -4.3759e-07 3.51447e-06 1.7309e-06 0.0005 1.46608e-07 
73 1 0.0188941 0.0159581 0.015089 0.00383253 0.00759893 0.00581337 -8.04513e-07 1.47177e-07 5.43579e-09 0.0005 1.46608e-07 
74 1 0.0177608 0.0228428 0.0152928 0.00247686 -0.00018545 -0.000795037 -2.41086e-06 -1.2982e-06 -6.95516e-08 0.0005 1.46608e-07 
75 1 0.0186332 0.0224108 0.015578 0.00313562 -0.00337175 -0.0102563 0 0 -1.43822e-06 0.0005 1.46608e-07 
76 1 0.0203487 0.0192042 0.00717233 -0.000247067 -0.00886322 -0.00123966 2.33392e-07 -1.21872e-07 -4.90386e-08 0.0005 1.46608e-07 
77 1 0.0241717 0.0213782 0.0171875 -0.00701327 0.00373614 -0.000977818 1.61128e-06 -1.19761e-07 3.34456e-07 0.0005 1.46608e-07 
79 1 0.0124736 0.0196357 0.0167044 -0.00689896 0.000886458 -0.00161175 1.3948e-07 -1.28448e-06 1.08168e-07 0.0005 1.46608e-07 
80 1 0.0174354 0.0142441 0.0130185 0.00481835 -0.00202723 0.00206671 2.25052e-07 2.34636e-07 2.24876e-07 0.0005 1.46608e-07 
81 1 0.0174097 0.0223194 0.0145138 0.00214146 0.00213674 -0.00677034 5.75772e-06 -1.15368e-05 6.924e-07 0.0005 1.46608e-07 
82 1 0.0199558 0.0232358 0.0165825 0.000225359 -0.00169637 -0.00419809 4.9706e-07 -5.76135e-07 2.36533e-07 0.0005 1.46608e-07 
83 1 0.0157289 0.0215846 0.015151 0.00569858 -0.00118354 -0.00162754 1.70212e-06 3.79107e-06 1.38383e-05 0.0005 1.46608e-07 
84 1 0.0169005 0.020962 0.0155168 0.00175166 0.019093 -0.00594851 -6.98412e-07 3.20514e-06 8.18752e-07 0.0005 1.46608e-07 
85 1 0.0183207 0.0138776 0.016351 0.00308628 0.00272009 -0.00998457 5.19123e-08 3.8218e-07 -9.78533e-07 0.0005 1.46608e-07 
86 1 0.0238858 0.0205003 0.0157016 0.00185256 0.0114074 -0.00411793 -1.61529e-06 3.70709e-06 1.00848e-06 0.0005 1.46608e-07 
87 1 0.0202061 0.0221024 0.00848181 -0.0049714 -0.00686528 -0.0065375 7.07274e-05 5.45419e-06 1.68977e-05 0.0005 1.46608e-07 
89 1 0.0190426 0.0242873 0.0167611 2.13378e-05 -0.000874175 -0.00148534 -7.28366e-07 -2.10989e-07 -1.4336e-08 0.0005 1.46608e-07 
90 1 0.0262571 0.0228201 0.0093815 0.00228621 -0.00872316 -0.0161291 1.60111e-08 3.63137e-09 3.08497e-09 0.0005 1.46608e-07 
92 1 0.022683 0.0161478 0.0160892 0.000454144 0.00687676 -0.00570084 0 0 -1.43822e-06 0.0005 1.46608e-07 
93 1 0.0194566 0.0229543 0.015414 0.00189983 6.22087e-05 -0.00133981 -2.6925e-06 -4.33238e-07 -4.25115e-07 0.0005 1.46608e-07 
94 1 0.0192772 0.0192939 0.00716214 0.00152109 -0.0234493 -0.00211 -1.8304e-08 -2.7271e-08 1.45512e-08 0.0005 1.46608e-07 
95 1 0.0223166 0.0195637 0.0175162 0.00309797 0.00276299 0.00102207 1.09829e-06 1.31006e-07 -3.35467e-07 0.0005 1.46608e-07 
96 1 0.0189995 0.0146135 0.0119517 0.00173115 -0.0015798 0.00260127 1.74279e-08 2.39684e-07 -4.65501e-08 0.0005 1.46608e-07 
97 1 0.0234772 0.016054 0.0154857 0.00209551 0.00491284 0.00356537 6.17271e-07 3.99483e-07 -9.77742e-07 0.0005 1.46608e-07 
99 1 0.0186769 0.0244331 0.0137228 1.43748e-05 -3.71357e-05 -5.88755e-05 -1.26389e-07 -2.38932e-08 2.48206e-08 0.0005 1.46608e-07 
100 1 0.0217242 0.0164487 0.0160997 0.00115811 0.0183241 0.0101648 1.11469e-07 2.46719e-07 -7.68401e-07 0.0005 1.46608e-07 
101 1 0.0173309 0.0233136 0.0144456 -0.00445586 -0.00368575 -0.0130339 -5.66811e-06 2.07624e-05 -4.673e-07 0.0005 1.46608e-07 
103 1 0.0179866 0.0230863 0.0165363 -0.00106774 -0.000339686 -0.00629296 7.52342e-07 4.80262e-07 5.77591e-07 0.0005 1.46608e-07 
104 1 0.0163841 0.0215997 0.0172334 0.00405361 -0.0073951 0.00113494 0 0 -1.43822e-06 0.0005 1.46608e-07 
105 1 0.0201472 0.0140272 0.0130605 0.00498899 -0.000513834 0.00358922 2.13623e-07 6.62488e-09 -1.09561e-06 0.0005 1.46608e-07 
106 1 0.0193864 0.022435 0.016398 -0.000765691 -0.000955017 -0.00340184 4.00258e-07 -4.09884e-07 2.0418e-07 0.0005 1.46608e-07 
107 1 0.0126929 0.0205954 0.0165294 -0.000120688 -0.000128667 6.48687e-05 1.13969e-07 1.33789e-08 3.45306e-08 0.0005 1.46608e-07 
108 1 0.0227412 0.0235792 0.0143237 -1.78455e-05 2.70817e-05 1.71519e-05 -4.26837e-08 3.0502e-08 5.18617e-08 0.0005 1.46608e-07 
109 1 0.0195552 0.0214577 0.016867 -0.00696135 0.00429277 -0.00441193 1.30692e-07 2.034e-07 -8.13425e-07 0.0005 1.46608e-07 
111 1 0.0219905 0.0232221 0.0160211 0.00212392 -0.00117938 0.000455072 1.86692e-06 -1.30074e-06 -2.77066e-07 0.0005 1.46608e-07 
112 1 0.0167274 0.0150465 0.0162622 0.00199577 0.00347239 -0.0066436 3.18495e-07 2.76111e-07 -7.91819e-07 0.0005 1.46608e-07 
113 1 0.0236731 0.0228853 0.0157854 0.000244138 0.000816228 4.65807e-05 -1.59127e-07 7.778e-08 6.01636e-08 0.0005 1.46608e-07 
114 1 0.0172915 0.0152354 0.0137857 0.00124633 0.0108166 0.0189461 5.7558e-07 6.53316e-07 -8.39624e-07 0.0005 1.46608e-07 
116 1 0.0234561 0.0207898 0.0165567 -0.00013629 0.000784821 -0.00144274 -2.66181e-06 5.87117e-07 3.84074e-06 0.0005 1.46608e-07 
117 1 0.0217943 0.022487 0.0166698 0.00117724 -0.0011094 0.00112324 8.84474e-07 1.86477e-06 2.25295e-08 0.0005 1.46608e-07 
119 1 0.0170021 0.023035 0.0163454 -0.00182523 -0.0102748 -0.0136131 -7.06374e-07 -2.09028e-07 -2.42373e-07 0.0005 1.46608e-07 
120 1 0.0175661 0.00260043 0.043518 -5.92656e-15 -4.50175e-14 -8.39761e-13 4.7811e-22 5.29396e-23 0 0.0005 1.46608e-07 
122 1 0.0231765 0.0220106 0.0158898 0.0010734 0.00199764 -0.00150154 -1.12091e-06 -8.92747e-07 -4.16959e-07 0.0005 1.46608e-07 
123 1 0.0200364 0.0201544 0.0174212 -0.000993833 0.00485506 -0.00114318 -3.40313e-09 3.91078e-09 -1.4148e-06 0.0005 1.46608e-07 
124 1 0.0212499 0.022965 0.0154007 0.00267515 -0.00213951 -0.00138054 -9.09174e-08 6.33992e-07 1.31339e-07 0.0005 1.46608e-07 
126 1 0.0139498 0.0206691 0.0165065 -0.00167154 -0.00112745 0.00386278 5.04443e-07 1.7611e-06 8.26524e-07 0.0005 1.46608e-07 
128 1 0.019928 0.0186112 0.0167362 0.00228788 -0.000218211 -0.0017912 -2.21486e-06 -3.56273e-07 -3.8719e-08 0.0005 1.46608e-07 
129 1 0.0196669 0.0244986 0.0135932 0.00018031 1.05313e-05 -0.000305991 -1.6006e-08 3.14866e-10 -1.39861e-09 0.0005 1.46608e-07 
130 1 0.0160809 0.0231792 0.0131457 0.00160137 0.000297928 -0.00192104 2.56756e-07 1.66898e-07 3.87917e-08 0.0005 1.46608e-07 
131 1 0.0192462 0.0237725 0.014212 0.00365024 -0.0080411 -0.0135507 -1.0763e-07 2.85186e-08 -4.49859e-07 0.0005 1.46608e-07 
132 1 0.0184901 0.0178115 0.0157825 0.00449447 0.00767741 -0.00490458 -1.21207e-06 2.91027e-06 8.4421e-08 0.0005 1.46608e-07 
133 1 0.0210131 0.0177541 0.0166018 0.00854269 0.00770659 0.000353703 -2.12851e-07 2.02181e-07 8.1751e-08 0.0005 1.46608e-07 
134 1 0.0234559 0.0149179 0.0127614 0.000236571 0.005745 0.017607 -7.83059e-09 4.7198e-08 3.6729e-08 0.0005 1.46608e-07 
135 1 0.0208089 0.0234568 0.0117376 0.00352028 -0.00185668 -0.00460647 -7.84695e-06 -4.02986e-06 9.87106e-06 0.0005 1.46608e-07 
136 1 0.0257474 0.0202617 0.0166208 -0.000349819 -0.000310033 -0.000420456 -4.31732e-07 6.52633e-07 -7.22944e-07 0.0005 1.46608e-07 
137 1 0.0123047 0.0153646 0.0227272 0.0843341 0.0584644 -0.315068 0 0 -1.43822e-06 0.0005 1.46608e-07 
138 1 0.0241976 0.015181 0.00960667 0.000726095 -0.00845186 0.0146117 3.41864e-08 6.59519e-08 -1.56138e-07 0.0005 1.46608e-07 
139 1 0.0186348 0.015415 0.0140564 -0.0019439 -0.00233588 -0.00509608 2.75963e-08 -4.61335e-07 -6.43651e-07 0.0005 1.46608e-07 
140 1 0.027013 0.0226797 0.00911972 0.00721174 -0.00648948 -0.00684529 -3.41956e-09 9.12836e-09 2.29141e-09 0.0005 1.46608e-07 
141 1 0.0217231 0.0233278 0.0126192 0.000710275 0.000561571 -0.000825203 -3.11632e-08 2.0157e-08 -7.03618e-08 0.0005 1.46608e-07 
142 1 0.0162106 0.0234387 0.0168045 0.000175015 -0.00806483 -0.0121273 5.40273e-07 -2.6536e-07 -7.55325e-07 0.0005 1.46608e-07 
143 1 0.0215659 0.0213589 0.0166695 -0.000874295 0.00296769 -0.000530287 -2.14974e-06 -2.54816e-06 1.18879e-06 0.0005 1.46608e-07 
144 1 0.0245285 0.0161752 0.00828689 -0.000221699 -0.0189799 0.0145064 5.46663e-08 -2.2273e-08 2.22793e-07 0.0005 1.46608e-07 
145 1 0.0201489 0.0242163 0.0165515 8.99882e-05 -0.000895077 -0.00133132 -3.10826e-07 -6.47284e-07 -4.31557e-07 0.0005 1.46608e-07 
146 1 0.0224697 0.0181391 0.0166519 0.00177912 0.00328855 0.00443719 8.10588e-07 1.88226e-07 -1.43415e-07 0.0005 1.46608e-07 
147 1 0.0273872 0.0223142 0.0141845 0.000141349 0.0163018 -0.0193535 -1.89725e-09 -7.92463e-09 -1.37292e-08 0.0005 1.46608e-07 
151 1 0.0190701 0.0148332 0.0129246 0.00501916 -0.000296369 0.00184178 -8.45277e-07 -3.37891e-08 -4.59543e-07 0.0005 1.46608e-07 
152 1 0.0187632 0.0147738 0.0148222 0.00757703 0.00604798 0.00868379 1.09182e-07 -3.79211e-07 -8.76084e-07 0.0005 1.46608e-07 
153 1 0.0205266 0.0183924 0.0176102 -0.0102619 -0.0143674 -0.0123344 1.19816e-07 -2.41998e-07 -8.06806e-07 0.0005 1.46608e-07 
154 1 0.0278791 0.0207236 0.0154808 0.00152464 0.010631 -0.00445733 -8.36893e-07 5.16049e-06 -4.46567e-07 0.0005 1.46608e-07 
155 1 0.0189861 0.0180349 0.00729872 0.00104432 -0.0182854 0.00517732 -1.59377e-08 -1.21381e-07 6.23009e-08 0.0005 1.46608e-07 
156 1 0.0165804 0.0178131 0.0157815 0.00484452 0.0094032 0.00413325 -2.27089e-07 3.74146e-07 8.64419e-08 0.0005 1.46608e-07 
157 1 0.0226814 0.0145872 0.0143388 0.00641015 0.00254622 0.00202634 -3.60063e-07 7.10696e-08 -1.3402e-07 0.0005 1.46608e-07 
158 1 0.0221501 0.021828 0.0160073 0.00110706 0.000710009 0.000285677 -9.37202e-07 -2.17837e-06 1.05373e-06 0.0005 1.46608e-07 
159 1 0.0236557 0.0147511 0.011775 0.000810369 -4.7183e-06 0.0216115 -2.836e-09 -8.60954e-09 -1.02401e-07 0.0005 1.46608e-07 
160 1 0.0214576 0.0223285 0.0144968 0.00396923 0.00390399 -0.00410427 -1.16292e-07 2.8454e-07 -1.44625e-07 0.0005 1.46608e-07 
161 1 0.0248959 0.01935 0.0175756 -0.00290518 0.000123837 -0.00182756 0 0 -1.43822e-06 0.0005 1.46608e-07 
162 1 0.0232331 0.015385 0.0140152 0.00471818 0.0034934 0.00434487 2.55292e-07 7.12408e-07 1.14771e-06 0.0005 1.46608e-07 
163 1 0.0238914 0.0158641 0.0145956 0.00510435 0.0038439 0.00437672 1.35418e-06 9.16579e-07 4.69384e-07 0.0005 1.46608e-07 
164 1 0.0276887 0.0214252 0.0150999 0.00366592 0.0104741 -0.00627588 9.63527e-07 7.12211e-06 -8.35518e-06 0.0005 1.46608e-07 
165 1 0.016259 0.01563 0.0155462 0.00379466 -0.00646225 -0.00210667 1.76189e-06 1.25467e-06 7.70393e-07 0.0005 1.46608e-07 
166 1 0.0160041 0.01987 0.0168777 0.00238764 -0.00672119 -0.0127087 2.40832e-07 4.58852e-07 -1.0306e-06 0.0005 1.46608e-07 
167 1 0.0176137 0.0155082 0.0163006 0.00992789 -0.0126161 -0.00656511 0 0 -1.43822e-06 0.0005 1.46608e-07 
168 1 0.0221252 0.0198445 0.0159929 0.00671337 -0.00199913 0.00244667 3.12366e-07 -1.6359e-06 4.45411e-07 0.0005 1.46608e-07 
169 1 0.0154916 0.0231012 0.0174628 0.00148019 -0.00569342 -0.00534507 -1.47138e-06 1.94828e-06 -1.47012e-06 0.0005 1.46608e-07 
170 1 0.0216754 0.0216148 0.0151048 0.00327528 0.00674252 -0.00449834 -1.2305e-07 3.00936e-07 -1.90287e-08 0.0005 1.46608e-07 
171 1 0.0221301 0.0227279 0.0140114 0.00231614 0.00224815 -0.00252046 -6.13283e-08 1.08545e-07 -1.93225e-07 0.0005 1.46608e-07 
172 1 0.0163619 0.0187848 0.0159414 0.0029934 0.012252 0.00171582 3.40592e-07 2.93929e-07 -6.57696e-08 0.0005 1.46608e-07 
173 1 0.0216481 0.0194503 0.0167812 0.00277032 0.00237161 0.0015962 3.96915e-07 -2.45569e-07 -1.47361e-07 0.0005 1.46608e-07 
175 1 0.0430669 0.0177959 0.00604066 -2.82192e-15 8.18833e-15 4.49369e-14 9.70117e-21 1.76818e-20 -2.75286e-21 0.0005 1.46608e-07 
176 1 0.0164407 0.0149217 0.0148179 0.00380687 -0.00334074 -0.000265855 1.58864e-07 -1.7428e-07 1.00138e-06 0.0005 1.46608e-07 
177 1 0.0137674 0.0221112 0.0157749 0.00131286 0.00154591 -0.00276363 3.75097e-07 6.62605e-07 -4.07863e-07 0.0005 1.46608e-07 
178 1 0.0179476 0.0189605 0.0169134 0.0154854 -0.0258837 -0.00763903 0 0 -1.43822e-06 0.0005 1.46608e-07 
179 1 0.021903 0.0149961 0.015884 0.00820386 -0.00213304 -0.00072448 2.09019e-08 -2.51387e-07 2.19493e-07 0.0005 1.46608e-07 
180 1 0.0189571 0.0232951 0.0166729 -0.000418685 -0.000718842 -0.00416624 2.43385e-07 -1.56006e-07 4.2725e-07 0.0005 1.46608e-07 
181 1 0.020282 0.0151611 0.0163786 0.0133455 0.00644725 -7.54755e-05 1.06615e-07 -1.28419e-08 -1.22008e-06 0.0005 1.46608e-07 
182 1 0.0142401 0.0229809 0.0156323 0.00109831 0.00171446 -0.000475507 4.37212e-09 2.43568e-07 1.29242e-07 0.0005 1.46608e-07 
183 1 0.0181408 0.0177768 0.0168042 0.00995708 -0.00403926 0.00212783 -1.89628e-06 2.89364e-06 -8.85646e-07 0.0005 1.46608e-07 
184 1 0.0210401 0.0147604 0.0145293 0.00532459 0.00185598 0.000423005 -1.31042e-07 6.10765e-08 3.90204e-07 0.0005 1.46608e-07 
185 1 0.0174955 0.0236831 0.0157654 -3.66853e-05 -0.000528191 -0.000906025 -5.8697e-07 -7.22214e-07 -3.61126e-07 0.0005 1.46608e-07 
186 1 0.0171098 0.0244506 0.0181835 -0.0026781 -0.0019662 -0.0042231 1.0033e-08 -2.14642e-07 -7.18037e-07 0.0005 1.46608e-07 
187 1 0.025863 0.0192754 0.016738 -0.00042157 -0.000168556 -0.000326878 -6.22609e-08 5.85272e-07 3.37152e-07 0.0005 1.46608e-07 
189 1 0.0270291 0.0232299 0.012734 0.00176571 0.00816642 -0.0200177 3.41238e-09 -4.5747e-08 1.83858e-09 0.0005 1.46608e-07 
190 1 0.0248776 0.0220178 0.0163644 -0.000286466 0.000117028 -0.000736503 -8.16896e-07 1.18323e-07 -6.05619e-07 0.0005 1.46608e-07 
191 1 0.0209006 0.0239655 0.0129476 0.00178525 0.00171007 -0.0018242 -1.50461e-08 1.4674e-08 -4.85398e-08 0.0005 1.46608e-07 
192 1 0.0196231 0.0142746 0.0147157 0.00512519 0.00277946 0.00471248 -6.54195e-07 -4.51257e-07 -3.52123e-07 0.0005 1.46608e-07 
193 1 0.0216677 0.0228893 0.0175766 -0.00140026 -0.00208022 -0.000926645 0 0 -1.43822e-06 0.0005 1.46608e-07 
194 1 0.0229132 0.0229823 0.013554 0.000511001 0.00254234 -0.00142775 -1.19813e-08 1.99166e-08 -8.67861e-08 0.0005 1.46608e-07 
195 1 0.0170683 0.0239607 0.0167185 0.00169554 -0.00716713 -0.0231011 8.15057e-08 -3.39642e-07 -1.09801e-06 0.0005 1.46608e-07 
196 1 0.0184144 0.0138208 0.0135271 0.00132004 -0.000501129 0.00316345 1.91236e-06 -3.11189e-06 4.96632e-06 0.0005 1.46608e-07 
197 1 0.0179967 0.0213517 0.0163714 -0.00189088 -0.00162132 -0.00688637 -8.85293e-07 -1.73655e-07 -4.09326e-07 0.0005 1.46608e-07 
198 1 0.0231159 0.0198831 0.0158634 0.00722323 0.00335716 -0.000643923 -2.49755e-07 6.87325e-07 4.25808e-07 0.0005 1.46608e-07 
199 1 0.0219118 0.0241008 0.0142979 -9.55208e-05 -3.43629e-05 -5.93115e-05 1.53963e-09 8.66063e-09 -2.24558e-09 0.0005 1.46608e-07 
200 1 0.0210995 0.0225958 0.00907506 -0.0002189 -0.00263725 -0.00361581 1.14231e-08 1.0291e-08 1.96225e-09 0.0005 1.46608e-07 
202 1 0.0198261 0.0183336 0.00726469 0.000796956 -0.0235682 0.00401413 -1.77561e-08 -4.15999e-08 2.10966e-08 0.0005 1.46608e-07 
203 1 0.0156268 0.0234934 0.0144739 -0.00124729 0.00111741 -0.0021348 -8.95226e-07 1.16659e-06 4.413e-07 0.0005 1.46608e-07 
204 1 0.0152754 0.0155139 0.0154091 0.00340759 -0.000421064 -0.00303733 -1.98507e-06 -1.68827e-06 -1.45031e-06 0.0005 1.46608e-07 
205 1 0.0149696 0.0235315 0.0152266 -0.00169655 0.00332569 -0.00311969 -1.732e-06 8.18244e-07 -2.37824e-07 0.0005 1.46608e-07 
206 1 0.0169921 0.0161002 0.0148323 0.00315026 0.00815308 0.0117132 -2.32214e-06 7.16506e-07 1.13923e-06 0.0005 1.46608e-07 
207 1 0.0171875 0.0152819 0.0153769 0.0087725 -0.000961589 -0.00786863 1.30326e-06 9.3635e-08 1.26873e-06 0.0005 1.46608e-07 
208 1 0.0242589 0.0166679 0.0152539 -0.00257018 0.000863274 -0.000952952 6.21174e-08 -2.06694e-07 -6.83742e-08 0.0005 1.46608e-07 
209 1 0.0248575 0.0188127 0.0167307 -0.000448176 0.00239799 0.000819938 5.91366e-07 -1.10197e-06 -1.06009e-06 0.0005 1.46608e-07 
211 1 0.0156631 0.0237894 0.018173 0.00139805 -0.00477122 -0.00889278 3.06875e-07 -2.48064e-07 -9.2548e-07 0.0005 1.46608e-07 
212 1 0.0202255 0.0221994 0.0168881 -0.00123891 -0.000802838 -0.00184885 -6.36187e-08 5.49168e-07 -1.21144e-06 0.0005 1.46608e-07 
213 1 0.0186265 0.0231344 0.0148871 0.00172198 0.000148838 -0.00146105 -3.03866e-06 -1.35586e-06 6.30878e-07 0.0005 1.46608e-07 
214 1 0.0200887 0.023353 0.0145499 0.00100993 -0.00204189 -0.00284118 1.11436e-07 -7.1862e-09 6.49865e-08 0.0005 1.46608e-07 
215 1 0.0174351 0.0143409 0.016311 0.00243878 0.00253211 -0.00586647 2.92669e-07 3.00474e-07 -7.87484e-07 0.0005 1.46608e-07 
217 1 0.0189259 0.0216 0.0160977 -0.0008077 -0.000831151 -0.00293622 6.60419e-08 -4.32592e-07 -2.83506e-07 0.0005 1.46608e-07 
218 1 0.0191479 0.0145731 0.013887 0.00659394 0.00101166 0.00192052 5.5837e-07 -1.80868e-07 1.40263e-07 0.0005 1.46608e-07 
219 1 0.0213334 0.0203872 0.0166299 0.00246893 0.00174987 -0.000440187 1.00863e-06 -6.27596e-07 6.9496e-07 0.0005 1.46608e-07 
220 1 0.0227969 0.0168194 0.0153561 0.00210297 0.0163538 0.0087972 3.86772e-07 3.64046e-07 1.25072e-06 0.0005 1.46608e-07 
221 1 0.0201694 0.0201704 0.00736431 -0.000132442 -0.0242418 -0.00778098 7.53467e-10 -7.28882e-09 1.14799e-08 0.0005 1.46608e-07 
222 1 0.0171299 0.0172516 0.0164873 0.000652127 -0.0224984 -0.00862553 0 0 -1.43822e-06 0.0005 1.46608e-07 
223 1 0.0200665 0.0174394 0.0164859 0.010299 -0.0022087 -0.00154083 -2.50621e-07 1.56667e-07 8.2258e-08 0.0005 1.46608e-07 
224 1 0.0168316 0.0233925 0.0124491 0.00586129 0.00162452 -0.00545365 4.39847e-09 -2.59612e-09 -1.19339e-07 0.0005 1.46608e-07 
225 1 0.0149674 0.0148731 0.0147059 0.00303401 -0.000154307 -0.00365799 -1.64835e-07 -7.23294e-07 -2.22772e-07 0.0005 1.46608e-07 
226 1 0.0211884 0.0231087 0.0132965 0.002754 0.00167664 -0.00290412 1.74325e-08 8.73536e-08 -1.50658e-07 0.0005 1.46608e-07 
228 1 0.0204026 0.021183 0.0173477 -0.00118037 0.00068327 -0.00172442 -1.47173e-07 1.10025e-07 2.0398e-06 0.0005 1.46608e-07 
230 1 0.0183482 0.0142163 0.0126113 0.00522548 -0.000990325 0.00230102 3.27269e-06 -4.02819e-07 -2.69492e-07 0.0005 1.46608e-07 
231 1 0.0182654 0.0236135 0.0140875 7.55399e-05 -0.000191136 -0.000214653 2.1931e-07 -2.52733e-07 4.01414e-07 0.0005 1.46608e-07 
232 1 0.0194301 0.0139961 0.016693 0.00148187 0.00535386 -0.0102464 -1.66514e-07 3.94498e-07 -9.11445e-07 0.0005 1.46608e-07 
233 1 0.0188446 0.0171866 0.00762042 0.0016853 -0.0166878 0.00921778 -1.34564e-08 -6.2537e-08 5.43576e-08 0.0005 1.46608e-07 
234 1 0.0244207 0.0157542 0.015627 0.00205873 0.00215783 0.00150422 -1.78782e-07 3.03744e-08 -8.08771e-07 0.0005 1.46608e-07 
235 1 0.0199035 0.024097 0.0127073 -0.000641228 0.000632183 -0.00114001 -1.30945e-09 -2.68378e-09 6.04341e-08 0.0005 1.46608e-07 
236 1 0.0248569 0.0198118 0.0166895 0.000356408 0.000960262 -8.00339e-05 -9.87959e-07 1.36984e-07 1.91267e-06 0.0005 1.46608e-07 
237 1 0.015488 0.0190185 0.016785 -0.00838127 -0.00136617 -0.00140821 -2.48016e-08 3.71136e-07 8.5513e-08 0.0005 1.46608e-07 
239 1 0.0257772 0.021179 0.00787105 -2.56123e-05 -0.0214593 -0.0142567 -4.5477e-09 -9.70915e-09 1.10202e-08 0.0005 1.46608e-07 
240 1 0.0192158 0.0152985 0.0157959 0.00432742 0.00235639 -0.0120122 0 0 -1.43822e-06 0.0005 1.46608e-07 
241 1 0.0167768 0.0228149 0.0151192 0.002189 -0.000549725 -0.00420646 -6.9054e-08 6.62562e-07 -2.98787e-06 0.0005 1.46608e-07 
242 1 0.0196728 0.0209175 0.00764969 0.000315138 -0.0219885 -0.0101485 -1.49746e-09 -1.3845e-08 9.22908e-09 0.0005 1.46608e-07 
244 1 0.01643 0.0240779 0.017542 0.00447771 -0.00384786 -0.0148419 4.19175e-08 -3.34261e-07 -1.1162e-06 0.0005 1.46608e-07 
245 1 0.0202648 0.023811 0.0136787 0.000696305 0.000126373 -0.00150908 -4.50327e-08 1.83003e-08 1.1534e-08 0.0005 1.46608e-07 
246 1 0.0210889 0.0238846 0.0147917 -0.000612633 5.69407e-05 -0.000329875 -1.31547e-07 3.54845e-08 -1.42879e-07 0.0005 1.46608e-07 
247 1 0.0188133 0.0206902 0.0164969 -0.000264908 0.0017336 0.00101443 -1.02692e-06 -3.25499e-06 1.40266e-06 0.0005 1.46608e-07 
248 1 0.0244514 0.020706 0.0165001 -0.000886614 0.00179888 0.00108097 -1.9478e-06 -1.91826e-06 -8.67538e-07 0.0005 1.46608e-07 
249 1 0.0165438 0.0237698 0.0149383 0.000822691 0.000612617 -0.00314373 1.21023e-06 -1.72922e-06 3.84941e-06 0.0005 1.46608e-07 
251 1 0.0240038 0.0215546 0.0162177 -0.000590607 0.000527841 -0.00106607 -1.49456e-06 2.45122e-06 -9.47926e-08 0.0005 1.46608e-07 
253 1 0.0260619 0.0222205 0.00868813 -9.36396e-05 -0.0144828 -0.016278 4.15968e-10 -2.74537e-08 9.92113e-09 0.0005 1.46608e-07 
254 1 0.021028 0.024323 0.0139091 0.000174614 6.02494e-05 -0.00035288 -2.89661e-08 2.62532e-08 -1.35554e-09 0.0005 1.46608e-07 
255 1 0.0218833 0.0218816 0.0174607 0.000356705 -0.00101346 0.0019417 2.31054e-07 -8.209e-07 -1.35783e-07 0.0005 1.46608e-07 
256 1 0.0186173 0.0196905 0.0167249 0.00167766 -0.00423824 -0.0084684 -2.9117e-07 7.88585e-07 -9.06651e-07 0.0005 1.46608e-07 
258 1 0.0219376 0.0186592 0.0173199 0.000101281 0.00286511 0.00421943 2.10176e-07 -2.81624e-08 2.06372e-08 0.0005 1.46608e-07 
259 1 0.0157878 0.0145112 0.0141815 0.000879043 -0.000747396 0.000522275 1.91403e-08 2.5785e-07 1.27172e-07 0.0005 1.46608e-07 
260 1 0.0231657 0.017044 0.0162579 0.00932661 0.0133403 0.00721115 8.02216e-07 4.68954e-07 2.38256e-06 0.0005 1.46608e-07 
261 1 0.0142024 0.0153123 0.0151838 0.00332812 -0.00328426 -0.00320386 1.81764e-07 -2.80544e-08 -3.47925e-07 0.0005 1.46608e-07 
262 1 0.0148122 0.0200912 0.0166705 -0.0110404 -0.00748003 0.00030664 1.72533e-07 9.42371e-07 -1.20891e-07 0.0005 1.46608e-07 
263 1 0.0166921 0.0218228 0.0150336 0.00454811 -0.00109958 -0.00510482 -3.23996e-06 1.96592e-06 6.99048e-07 0.0005 1.46608e-07 
264 1 0.0168563 0.0163181 0.0162305 -0.0180787 -0.0193982 -0.00858501 0 0 -1.43822e-06 0.0005 1.46608e-07 
265 1 0.016401 0.0223436 0.0159375 -0.00206511 -0.00707355 -0.013357 0 0 -1.43822e-06 0.0005 1.46608e-07 
269 1 0.0157341 0.0225629 0.0166524 0.00442606 -0.00520062 -0.0118557 1.64162e-06 -1.17462e-07 -2.71691e-06 0.0005 1.46608e-07 
270 1 0.0154384 0.0212756 0.017209 0.00135729 -0.000135675 -0.00140775 3.97785e-07 3.81385e-07 -7.17384e-07 0.0005 1.46608e-07 
271 1 0.0181156 0.0143709 0.015469 -0.000515026 0.00146643 -0.00200847 -9.33692e-08 -1.11838e-07 -9.88378e-07 0.0005 1.46608e-07 
272 1 0.0226586 0.0214772 0.0152212 0.00121447 -0.00262547 0.0015808 -1.12684e-06 2.83901e-06 -1.71913e-06 0.0005 1.46608e-07 
273 1 0.0176881 0.0172284 0.0156548 0.00670399 0.00496357 -0.00650471 -2.05345e-07 2.46258e-06 6.64389e-07 0.0005 1.46608e-07 
275 1 0.0184464 0.0222178 0.0167206 -0.00156903 1.26417e-05 -0.00439794 -5.96319e-08 1.22023e-07 -5.64311e-07 0.0005 1.46608e-07 
277 1 0.0245316 0.0174238 0.0158547 0.00796404 0.00835351 -0.0326895 0 0 -1.43822e-06 0.0005 1.46608e-07 
278 1 0.0178572 0.0206923 0.0156277 0.000571255 0.0202938 -0.00650372 0 0 -1.43822e-06 0.0005 1.46608e-07 
280 1 0.0162954 0.0226913 0.0140486 0.00598209 -0.00194359 0.00439748 -2.94844e-06 7.99785e-06 -6.91125e-07 0.0005 1.46608e-07 
281 1 0.02008 0.01577 0.0156085 0.00295649 0.00606443 0.00080509 -2.21516e-08 -3.6707e-07 -3.52049e-07 0.0005 1.46608e-07 
282 1 0.0176457 0.0215567 0.0151689 0.00514915 0.000837706 -0.00715025 -1.08798e-06 -1.05909e-06 -9.54014e-07 0.0005 1.46608e-07 