ITEM: TIMESTEP
1000000
ITEM: NUMBER OF ATOMS
254
ITEM: BOX BOUNDS ff ff ff
-0.02 0.43
-0.02 0.06
-0.02 0.1
ITEM: ATOMS id type x y z vx vy vz fx fy fz radius mass 
1 1 0.022919 0.0217502 0.0152525 0.00403916 -0.00541756 -0.00450776 0 0 -1.43822e-06 0.0005 1.46608e-07 
2 1 0.0169383 0.0216602 0.015111 0.00284147 -0.00611654 0.0102417 1.07361e-06 -3.33015e-06 4.62332e-06 0.0005 1.46608e-07 
3 1 0.0230384 0.0201199 0.020368 0 -0 -0.01 0 0 0 0.0005 1.46608e-07 
4 1 0.01626 0.0168583 0.0191503 0 -0 -0.01 0 0 0 0.0005 1.46608e-07 
5 1 0.0201792 0.0143535 0.0138716 -0.000216405 -0.000855776 0.00165117 1.17408e-06 -7.47341e-07 2.43399e-07 0.0005 1.46608e-07 
6 1 0.0147843 0.0206771 0.0165099 -1.08824e-08 0.0277277 -0.00892667 -1.7298e-14 -7.0938e-09 -2.22422e-08 0.0005 1.46608e-07 
7 1 0.0176399 0.0151902 0.0137042 0.0051553 0.00120204 4.38913e-05 6.66714e-06 4.11455e-06 4.83138e-06 0.0005 1.46608e-07 
8 1 0.023253 0.0189513 0.0201318 0 -0 -0.01 0 0 0 0.0005 1.46608e-07 
9 1 0.0221751 0.023477 0.0144969 0.00178303 0.000282732 -0.000400573 -1.92741e-06 -1.16168e-06 8.00015e-06 0.0005 1.46608e-07 
10 1 0.0183781 0.0237685 0.0157469 -0.000176981 0.000120325 -0.000210952 -7.89031e-07 -2.27023e-07 9.54449e-07 0.0005 1.46608e-07 
11 1 0.015043 0.01872 0.0209771 0 -0 -0.01 0 0 0 0.0005 1.46608e-07 
12 1 0.0188592 0.023481 0.0143567 0.000794292 0.00220996 0.00712796 -3.79672e-06 9.98932e-07 7.00067e-07 0.0005 1.46608e-07 
13 1 0.015971 0.0237243 0.014394 0.00282412 -0.000493569 0.000166539 -3.60394e-07 1.58845e-06 -2.36434e-06 0.0005 1.46608e-07 
14 1 0.0170254 0.0230763 0.0207019 0 -0 -0.01 0 0 0 0.0005 1.46608e-07 
15 1 0.0205274 0.0170344 0.0216657 0 -0 -0.01 0 0 0 0.0005 1.46608e-07 
16 1 0.0163958 0.0165892 0.0201934 0 -0 -0.01 0 0 0 0.0005 1.46608e-07 
17 1 0.0216857 0.0224297 0.0157938 0.00385679 0.00146029 0.000718248 1.22895e-06 -3.02698e-06 3.87237e-06 0.0005 1.46608e-07 
19 1 0.0171994 0.0235873 0.0156098 0.0102797 -0.00472557 -0.019076 -3.80954e-08 -2.57429e-07 -1.21795e-06 0.0005 1.46608e-07 
20 1 0.0209311 0.0141171 0.0132564 -0.000271732 -0.00108848 0.00194061 1.26711e-07 -2.21948e-07 6.95795e-08 0.0005 1.46608e-07 
21 1 0.0196903 0.0237627 0.0138778 -0.00100956 0.000433965 0.00166779 -2.21052e-06 4.84485e-07 2.52365e-07 0.0005 1.46608e-07 
22 1 0.0186229 0.015221 0.0235092 0 -0 -0.01 0 0 0 0.0005 1.46608e-07 
23 1 0.0150128 0.0226723 0.0153534 -0.000515082 6.41105e-05 -0.00644994 8.71417e-07 3.45993e-06 -1.83702e-06 0.0005 1.46608e-07 
24 1 0.016471 0.0142665 0.0137143 -0.000242405 -0.00108244 0.00211824 -2.87622e-07 1.60704e-07 1.11985e-07 0.0005 1.46608e-07 
25 1 0.0237525 0.0187465 0.0159313 0.0153693 -0.00676288 -0.000204427 -1.80748e-07 3.11622e-07 5.5515e-08 0.0005 1.46608e-07 
26 1 0.0170528 0.0209794 0.0231698 0 -0 -0.01 0 0 0 0.0005 1.46608e-07 
27 1 0.0215108 0.0234057 0.0124478 0.000851785 0.000733103 -0.00124619 8.36236e-06 -1.54543e-05 5.20312e-06 0.0005 1.46608e-07 
28 1 0.0200234 0.0161164 0.0162824 0.0780465 -0.0508301 -0.00749818 0 0 -1.43822e-06 0.0005 1.46608e-07 
29 1 0.0170201 0.0185949 0.0187801 0 -0 -0.01 0 0 0 0.0005 1.46608e-07 
30 1 0.0199208 0.0231015 0.0161102 0.000790514 0.00116288 3.95047e-05 -6.22875e-07 -2.40484e-06 1.40443e-06 0.0005 1.46608e-07 
31 1 0.0176572 0.0201024 0.0187676 0 -0 -0.01 0 0 0 0.0005 1.46608e-07 
32 1 0.0193736 0.0237618 0.0154935 4.50299e-05 9.52831e-05 -0.000193605 2.85518e-07 -1.43854e-07 2.06747e-07 0.0005 1.46608e-07 
33 1 0.0230061 0.0173793 0.0156243 0.00389293 0.00936291 0.00278776 -9.53037e-10 -2.70285e-10 7.61353e-09 0.0005 1.46608e-07 
34 1 0.0202189 0.0217072 0.00813716 0.00110911 -0.0154021 -0.0118416 3.38493e-09 -3.3531e-09 3.08077e-08 0.0005 1.46608e-07 
35 1 0.0182134 0.0212152 0.0160937 0.0053446 0.00142344 0.00199285 -1.52157e-06 3.76606e-07 1.68939e-06 0.0005 1.46608e-07 
36 1 0.0219771 0.0233281 0.0154655 0.00172729 -0.000767592 0.000881308 2.77593e-06 -2.26887e-07 -1.81272e-06 0.0005 1.46608e-07 
37 1 0.0194373 0.0161727 0.0195451 0 -0 -0.01 0 0 0 0.0005 1.46608e-07 
38 1 0.0181574 0.0170568 0.0154708 -0.00557205 -0.00905424 -0.00341512 5.80853e-08 -6.87248e-08 1.36633e-08 0.0005 1.46608e-07 
39 1 0.022318 0.0205258 0.0156909 0.00106919 0.0212403 -0.00751572 -3.63958e-07 5.99836e-07 -3.86989e-07 0.0005 1.46608e-07 
40 1 0.0225179 0.0223355 0.0163408 0.00323151 0.0119185 0.00304453 -7.21867e-07 1.99317e-07 -1.59274e-06 0.0005 1.46608e-07 
41 1 0.0169794 0.0193058 0.0159566 0.00940689 -0.00957767 -0.00517166 0 0 -1.43822e-06 0.0005 1.46608e-07 
42 1 0.0188763 0.0145339 0.0144266 0.00118075 -0.000229951 -0.00106812 -1.54589e-06 -1.15456e-07 -3.26037e-07 0.0005 1.46608e-07 
43 1 0.0152235 0.0236011 0.0150474 0.00268241 0.00059277 -0.00256389 0 0 -1.43822e-06 0.0005 1.46608e-07 
44 1 0.0186277 0.0172272 0.0216134 0 -0 -0.01 0 0 0 0.0005 1.46608e-07 
45 1 0.0237509 0.0228463 0.0152806 -0.00200578 0.00102348 -0.00122842 -1.09027e-06 -1.57124e-06 -4.1823e-07 0.0005 1.46608e-07 
46 1 0.0199787 0.0216175 0.0218397 0 -0 -0.01 0 0 0 0.0005 1.46608e-07 
47 1 0.0222889 0.0184249 0.0198978 0 -0 -0.01 0 0 0 0.0005 1.46608e-07 
48 1 0.0204544 0.0148469 0.022499 0 -0 -0.01 0 0 0 0.0005 1.46608e-07 
49 1 0.0148901 0.0149124 0.0147521 2.73787e-06 -0.00108998 0.00224377 -5.17816e-08 -1.32048e-08 8.25474e-08 0.0005 1.46608e-07 
50 1 0.0213116 0.0210464 0.0182769 0 0 -0.056053 0 0 -1.43822e-06 0.0005 1.46608e-07 
51 1 0.0157658 0.0180083 0.0212644 0 -0 -0.01 0 0 0 0.0005 1.46608e-07 
52 1 0.0230644 0.0213789 0.0164025 -0.00200076 0.0108919 -0.0155638 0 0 -1.43822e-06 0.0005 1.46608e-07 
53 1 0.0240267 0.021381 0.0160402 -0.0028156 -0.00081619 0.00443715 -1.95347e-06 -1.10269e-06 -8.30655e-07 0.0005 1.46608e-07 
54 1 0.0188605 0.0221801 0.0166677 0.000416376 -0.00172435 -0.00120184 1.83924e-07 -2.7239e-08 -1.58478e-06 0.0005 1.46608e-07 
55 1 0.0221414 0.0221204 0.0228568 0 -0 -0.01 0 0 0 0.0005 1.46608e-07 
56 1 0.0234002 0.018439 0.0221411 0 -0 -0.01 0 0 0 0.0005 1.46608e-07 
57 1 0.0168092 0.0211674 0.0163048 0.0236061 -0.0108148 0.0120885 0 0 -1.43822e-06 0.0005 1.46608e-07 
58 1 0.0170035 0.0240328 0.014566 -0.00105505 0.000185022 0.000422037 6.21894e-07 7.71224e-07 -6.03454e-07 0.0005 1.46608e-07 
59 1 0.0206845 0.0179397 0.0199692 0 -0 -0.01 0 0 0 0.0005 1.46608e-07 
60 1 0.0211876 0.022637 0.00906694 -0.000200848 0.00382601 0.00201104 -1.23121e-07 1.97515e-07 3.19992e-07 0.0005 1.46608e-07 
61 1 0.0172296 0.0165003 0.0151475 0.00629398 -0.00332269 0.00323981 0 0 -1.43822e-06 0.0005 1.46608e-07 
62 1 0.0222455 0.0214092 0.0170529 0.004668 0.000987989 -0.0309787 0 0 -1.43822e-06 0.0005 1.46608e-07 
63 1 0.0220639 0.0204455 0.0238369 0 -0 -0.01 0 0 0 0.0005 1.46608e-07 
64 1 0.0193094 0.0142777 0.0160415 0.00926215 0.00805312 -0.0113695 9.19691e-08 3.49466e-08 -1.03965e-07 0.0005 1.46608e-07 
65 1 0.0205328 0.015653 0.0189116 0 -0 -0.01 0 0 0 0.0005 1.46608e-07 
66 1 0.022049 0.0186735 0.0215383 0 -0 -0.01 0 0 0 0.0005 1.46608e-07 
67 1 0.0223433 0.0183719 0.0234113 0 -0 -0.01 0 0 0 0.0005 1.46608e-07 
68 1 0.0222009 0.0210111 0.0194827 0 -0 -0.01 0 0 0 0.0005 1.46608e-07 
69 1 0.0174018 0.0210962 0.0204392 0 -0 -0.01 0 0 0 0.0005 1.46608e-07 
70 1 0.0238053 0.0205858 0.0166047 0.00206022 -0.00139883 0.00177337 1.5216e-06 5.47686e-07 -2.31036e-06 0.0005 1.46608e-07 
71 1 0.0169242 0.0194627 0.023703 0 -0 -0.01 0 0 0 0.0005 1.46608e-07 
72 1 0.015107 0.01696 0.0231215 0 -0 -0.01 0 0 0 0.0005 1.46608e-07 
73 1 0.0183301 0.0220896 0.0222795 0 -0 -0.01 0 0 0 0.0005 1.46608e-07 
74 1 0.018924 0.0230378 0.0161564 0.00112402 0.00157658 0.000720553 1.69804e-06 -8.6823e-07 -1.1305e-06 0.0005 1.46608e-07 
75 1 0.0180391 0.0196979 0.0220069 0 -0 -0.01 0 0 0 0.0005 1.46608e-07 
76 1 0.0166235 0.0238602 0.0136767 0.000928345 0.000528573 -0.000513158 3.20066e-07 6.94702e-07 -2.67069e-07 0.0005 1.46608e-07 
77 1 0.0195756 0.0220838 0.0195203 0 -0 -0.01 0 0 0 0.0005 1.46608e-07 
78 1 0.0198023 0.0211495 0.0231758 0 -0 -0.01 0 0 0 0.0005 1.46608e-07 
79 1 0.0212653 0.0209509 0.0205623 0 -0 -0.01 0 0 0 0.0005 1.46608e-07 
80 1 0.0172211 0.0220315 0.0159975 0.00401712 0.00251551 0.0047626 4.3107e-07 1.77434e-06 2.80955e-06 0.0005 1.46608e-07 
81 1 0.0204416 0.0185814 0.019094 0 -0 -0.01 0 0 0 0.0005 1.46608e-07 
82 1 0.0202207 0.0208529 0.0173679 -0.0152409 0.00174259 0.000654179 0 0 -1.43822e-06 0.0005 1.46608e-07 
83 1 0.0189359 0.0154522 0.0212643 0 -0 -0.01 0 0 0 0.0005 1.46608e-07 
84 1 0.0198393 0.0155082 0.0234014 0 -0 -0.01 0 0 0 0.0005 1.46608e-07 
85 1 0.0191026 0.0165474 0.015216 0.0252844 0.00387459 -0.0250482 0 0 -1.43822e-06 0.0005 1.46608e-07 
86 1 0.0192579 0.0140354 0.0136484 0.000661999 -0.000950052 -0.000751537 6.35399e-07 -2.9047e-07 1.25638e-06 0.0005 1.46608e-07 
87 1 0.0161146 0.0176486 0.023078 0 -0 -0.01 0 0 0 0.0005 1.46608e-07 
88 1 0.0211107 0.0232552 0.0159611 -0.000558292 -0.00314857 -0.00105849 5.89713e-07 3.90895e-07 -6.50501e-07 0.0005 1.46608e-07 
89 1 0.0178878 0.0163826 0.0200867 0 -0 -0.01 0 0 0 0.0005 1.46608e-07 
90 1 0.0226695 0.0185415 0.016914 0.00767527 -0.0543005 -0.0100841 0 0 -1.43822e-06 0.0005 1.46608e-07 
91 1 0.0182239 0.0232236 0.0195949 0 -0 -0.01 0 0 0 0.0005 1.46608e-07 
92 1 0.020741 0.0225298 0.0165417 -0.0312433 -0.000671344 -0.0179431 9.09302e-08 -3.77361e-07 -1.18736e-06 0.0005 1.46608e-07 
93 1 0.0189082 0.0243759 0.0137406 0.0101866 0.00948084 -0.0117916 0 0 -1.43822e-06 0.0005 1.46608e-07 
94 1 0.0187542 0.0241761 0.0165789 0.0023655 -0.000177917 -0.00101944 -8.26029e-08 6.84873e-08 5.7314e-07 0.0005 1.46608e-07 
95 1 0.0174605 0.0141339 0.0137705 -8.3059e-05 0.000490215 -0.00125615 -6.93859e-07 2.46752e-08 1.10961e-06 0.0005 1.46608e-07 
96 1 0.0155925 0.0230074 0.0135294 0.00502299 0.0023875 -0.00305164 -3.08033e-07 2.45031e-08 1.32364e-07 0.0005 1.46608e-07 
97 1 0.0192853 0.0178264 0.00735892 0.000622966 -0.0223327 0.00643635 -3.75222e-09 -2.68807e-09 1.44174e-08 0.0005 1.46608e-07 
98 1 0.0227724 0.0227223 0.0154454 -0.00303721 -0.00109201 -0.00216271 3.2373e-06 -6.49999e-07 -5.22496e-07 0.0005 1.46608e-07 
99 1 0.0179122 0.0237262 0.0138432 0.0107265 -0.00555844 -0.00934722 5.57467e-08 -1.72542e-08 -6.68372e-07 0.0005 1.46608e-07 
100 1 0.0174724 0.0185867 0.0196807 0 -0 -0.01 0 0 0 0.0005 1.46608e-07 
101 1 0.0154545 0.0212038 0.0177172 0 0 -0.118837 0 0 -1.43822e-06 0.0005 1.46608e-07 
102 1 0.0205182 0.0243259 0.0138658 -0.000624317 -0.000436869 0.000444592 -3.30109e-08 2.77329e-08 -8.0533e-08 0.0005 1.46608e-07 
103 1 0.0210533 0.0217058 0.016069 0.00598852 0.000449962 0.00260184 1.34645e-06 -3.12486e-06 1.11284e-08 0.0005 1.46608e-07 
104 1 0.0189539 0.0163899 0.00805819 0.000708955 -0.0163506 0.0135676 1.51274e-08 6.08069e-07 -7.26358e-08 0.0005 1.46608e-07 
105 1 0.0179811 0.0141311 0.0146242 -9.16499e-05 -0.000470843 -0.00183807 -7.57891e-07 -4.06267e-08 1.47839e-06 0.0005 1.46608e-07 
106 1 0.0202724 0.0233477 0.0145767 0.0029052 0.00234609 -0.000532993 -1.13407e-06 -1.25354e-07 -1.00077e-06 0.0005 1.46608e-07 
107 1 0.0242375 0.0204604 0.0157117 0.00152703 0.00117904 -0.00263071 6.23364e-06 -8.20323e-07 -3.11145e-06 0.0005 1.46608e-07 
108 1 0.0197955 0.0148633 0.0146415 0.000748753 -0.000786192 0.00124325 1.61339e-06 -8.71445e-07 -1.35355e-06 0.0005 1.46608e-07 
109 1 0.0183541 0.0160231 0.0148098 0.0118481 0.00730531 -0.00590247 -7.95024e-07 2.45468e-07 -1.83109e-07 0.0005 1.46608e-07 
110 1 0.0214095 0.023118 0.0132215 0.00340491 0.0022472 -0.00412287 2.00578e-05 -2.84844e-05 3.72731e-05 0.0005 1.46608e-07 
111 1 0.0225767 0.0193729 0.01594 0.00672497 -0.00161167 0.00193285 -8.77345e-07 -1.05443e-07 -2.35064e-08 0.0005 1.46608e-07 
112 1 0.0201391 0.0204827 0.0210752 0 -0 -0.01 0 0 0 0.0005 1.46608e-07 
113 1 0.023958 0.01702 0.0154515 0.00202312 0.00582293 0.00345298 -4.19862e-08 -7.75623e-08 -2.42302e-08 0.0005 1.46608e-07 
114 1 0.0208525 0.0205134 0.0234486 0 -0 -0.01 0 0 0 0.0005 1.46608e-07 
115 1 0.023405 0.0199278 0.0158636 0.0108515 -0.00981289 -0.00443635 -5.95891e-06 1.27729e-06 9.66628e-07 0.0005 1.46608e-07 
116 1 0.016655 0.0202523 0.015801 0.0165641 -0.000197839 -0.0027301 0 0 -1.43822e-06 0.0005 1.46608e-07 
117 1 0.0193428 0.0157969 0.0145234 0.00330427 0.00216748 0.00195881 -6.61586e-08 -3.97315e-07 -4.19025e-07 0.0005 1.46608e-07 
118 1 0.0219911 0.0169287 0.0235016 0 -0 -0.01 0 0 0 0.0005 1.46608e-07 
119 1 0.0189828 0.0202927 0.020892 0 -0 -0.01 0 0 0 0.0005 1.46608e-07 
120 1 0.0215656 0.0228534 0.0220222 0 -0 -0.01 0 0 0 0.0005 1.46608e-07 
121 1 0.0244588 0.0195077 0.0159197 0.00498186 0.00209779 0.00096242 1.45046e-07 4.65369e-08 -7.43848e-07 0.0005 1.46608e-07 
122 1 0.018635 0.0173842 0.0239002 0 -0 -0.01 0 0 0 0.0005 1.46608e-07 
123 1 0.0174701 0.0200834 0.0163902 0.0163738 -0.0119521 0.00861905 -2.39516e-06 5.65273e-07 -3.09097e-07 0.0005 1.46608e-07 
124 1 0.0134145 0.0138548 0.0235826 0.027741 0.0587896 -0.072024 0 0 -1.43822e-06 0.0005 1.46608e-07 
125 1 0.0231437 0.0176511 0.0193818 0 -0 -0.01 0 0 0 0.0005 1.46608e-07 
126 1 0.019886 0.0165115 0.0238828 0 -0 -0.01 0 0 0 0.0005 1.46608e-07 
127 1 0.0183725 0.0211044 0.0233661 0 -0 -0.01 0 0 0 0.0005 1.46608e-07 
128 1 0.0188409 0.0204379 0.0165677 0.00798638 0.018168 -0.00236072 1.19063e-06 -9.53674e-07 -2.77991e-07 0.0005 1.46608e-07 
129 1 0.0230222 0.0236368 0.015004 0.00338317 -0.00588983 -0.00249998 -3.8486e-07 -7.44045e-08 -1.19013e-06 0.0005 1.46608e-07 
130 1 0.0208805 0.0222565 0.0206547 0 -0 -0.01 0 0 0 0.0005 1.46608e-07 
131 1 0.0161892 0.0210762 0.0154695 0.00800512 -0.00302005 -0.00476513 0 0 -1.43822e-06 0.0005 1.46608e-07 
132 1 0.0200429 0.0210059 0.00769045 0.000378379 -0.0211597 -0.00977741 7.10499e-10 -8.55528e-09 9.47619e-09 0.0005 1.46608e-07 
133 1 0.0179286 0.0217715 0.0150319 0.00116739 0.0127919 -0.00829379 1.00412e-06 -1.21673e-06 2.44409e-06 0.0005 1.46608e-07 
134 1 0.0207874 0.0240652 0.0129579 -0.00130171 -0.000665626 -0.00052431 4.17415e-09 4.75472e-08 1.99768e-08 0.0005 1.46608e-07 
135 1 0.0171554 0.0214294 0.0187686 0 -0 -0.01 0 0 0 0.0005 1.46608e-07 
136 1 0.0238931 0.0217688 0.0150268 0.00513036 0.00283938 -7.13173e-05 -1.76613e-07 3.92228e-08 -3.18621e-07 0.0005 1.46608e-07 
137 1 0.0191856 0.0221762 0.0157221 0.00434247 0.00196627 -0.000958945 1.40659e-06 -2.92093e-06 1.13634e-06 0.0005 1.46608e-07 
138 1 0.0180294 0.0146277 0.0120394 0.00448877 -0.00124651 0.00548629 -3.97597e-07 3.64078e-07 -6.06087e-07 0.0005 1.46608e-07 
139 1 0.0198773 0.0143537 0.0123832 0.00513153 0.00168136 -0.00214778 -6.65488e-09 -3.79043e-07 -1.41791e-06 0.0005 1.46608e-07 
140 1 0.0219374 0.0168761 0.0185239 0 -0 -0.01 0 0 0 0.0005 1.46608e-07 
141 1 0.0228213 0.0204171 0.0165483 0.00139288 0.00584886 -0.0114881 -1.5216e-06 -5.47686e-07 -5.66085e-07 0.0005 1.46608e-07 
142 1 0.0204748 0.0209633 0.0164067 0.0048315 -0.000353851 0.00407216 2.3793e-06 -1.89006e-06 1.11249e-06 0.0005 1.46608e-07 
143 1 0.0166485 0.0223627 0.0144616 0.00571438 -0.00541972 0.00647662 -1.00726e-06 6.58225e-06 -7.83233e-06 0.0005 1.46608e-07 
144 1 0.0180011 0.0193066 0.015952 0.0182922 0.00221701 -3.31587e-05 -4.00259e-07 5.73229e-07 -1.95758e-07 0.0005 1.46608e-07 
145 1 0.0171585 0.023153 0.014483 -0.000705855 0.00165281 -0.000344457 7.34816e-07 2.30122e-06 -2.96905e-06 0.0005 1.46608e-07 
146 1 0.0212006 0.0153929 0.0235633 0 -0 -0.01 0 0 0 0.0005 1.46608e-07 
147 1 0.0232532 0.0164127 0.0150758 0.005438 0.00192082 0.000917561 3.09266e-08 -1.41188e-07 -8.17789e-08 0.0005 1.46608e-07 
148 1 0.018515 0.0191524 0.0233761 0 -0 -0.01 0 0 0 0.0005 1.46608e-07 
149 1 0.0178783 0.0230713 0.0162609 -0.00742253 -0.000351085 -0.00901511 9.7644e-08 5.19285e-07 -9.73783e-07 0.0005 1.46608e-07 
150 1 0.0200583 0.0217772 0.016002 0.00327819 0.000357893 0.0031514 1.46385e-06 -3.12937e-06 1.19088e-06 0.0005 1.46608e-07 
151 1 0.0234014 0.020003 0.0219393 0 -0 -0.01 0 0 0 0.0005 1.46608e-07 
152 1 0.0221951 0.0214971 0.0158948 -0.00327991 0.0199574 -0.00383405 2.89089e-07 5.77318e-07 -1.29008e-06 0.0005 1.46608e-07 
153 1 0.0206655 0.0185728 0.0222633 0 -0 -0.01 0 0 0 0.0005 1.46608e-07 
154 1 0.0250701 0.0169289 0.00774599 0.00157776 -0.0188454 0.01165 -2.83872e-08 -4.46098e-08 2.61696e-08 0.0005 1.46608e-07 
155 1 0.0191981 0.0213175 0.016234 0.00659851 -0.000868197 -0.0015896 8.25123e-07 -6.67373e-07 6.59215e-07 0.0005 1.46608e-07 
156 1 0.0182443 0.0202651 0.0157841 0.00740635 0.00136916 0.00152029 -1.65014e-06 2.5976e-06 5.03355e-07 0.0005 1.46608e-07 
157 1 0.0177367 0.0224542 0.0143263 0.00202548 0.0116791 -0.0138622 4.40956e-08 5.49229e-07 -6.22421e-07 0.0005 1.46608e-07 
158 1 0.0175603 0.0147312 0.0156211 0.0123508 0.0233587 4.78994e-05 0 0 -1.43822e-06 0.0005 1.46608e-07 
159 1 0.0185801 0.0228087 0.015151 -0.000561671 0.00882397 -0.0104253 1.65381e-07 1.07466e-06 -9.1739e-07 0.0005 1.46608e-07 
160 1 0.0173689 0.0240088 0.0130527 0.0004413 0.000569279 -0.000235736 -2.5727e-07 4.35008e-07 6.64312e-09 0.0005 1.46608e-07 
161 1 0.0212466 0.0191129 0.0203826 0 -0 -0.01 0 0 0 0.0005 1.46608e-07 
162 1 0.0174323 0.0157657 0.0144963 0.00732946 -0.00541113 -0.00239438 0 0 -1.43822e-06 0.0005 1.46608e-07 
163 1 0.020973 0.0146694 0.0143913 0.00033096 -0.000327457 0.000629793 -1.38709e-07 9.04702e-08 1.18575e-07 0.0005 1.46608e-07 
164 1 0.0248627 0.0166368 0.0152436 0.00222159 0.00526561 0.00223786 -8.97517e-08 1.061e-06 9.17377e-07 0.0005 1.46608e-07 
165 1 0.0154267 0.0216624 0.020143 0 -0 -0.01 0 0 0 0.0005 1.46608e-07 
166 1 0.021032 0.0224914 0.0235638 0 -0 -0.01 0 0 0 0.0005 1.46608e-07 
167 1 0.0162987 0.0213981 0.0219243 0 -0 -0.01 0 0 0 0.0005 1.46608e-07 
168 1 0.0183507 0.0240848 0.012963 5.43049e-05 0.0016975 -0.00152674 -2.00125e-07 2.41303e-07 6.66179e-07 0.0005 1.46608e-07 
169 1 0.0181725 0.0227722 0.0232441 0 -0 -0.01 0 0 0 0.0005 1.46608e-07 
170 1 0.0159604 0.0218814 0.0149187 0.00734161 -0.00546455 0.00741267 -2.56007e-06 8.82467e-06 -8.60817e-06 0.0005 1.46608e-07 
171 1 0.0215377 0.0209206 0.0164548 0.00270946 -0.00333571 6.83288e-05 4.51328e-07 -3.74475e-07 -1.29831e-06 0.0005 1.46608e-07 
172 1 0.0183647 0.0213616 0.0203271 0 -0 -0.01 0 0 0 0.0005 1.46608e-07 
173 1 0.0161867 0.0200783 0.0187067 0 -0 -0.01 0 0 0 0.0005 1.46608e-07 
174 1 0.0219555 0.0219036 0.0149872 0.00350826 0.00363898 0.000269455 2.21486e-07 -7.44009e-07 1.60508e-06 0.0005 1.46608e-07 
175 1 0.0225948 0.0223772 0.014468 0.00174704 0.00154416 0.000357533 1.08807e-06 1.51631e-06 3.47107e-06 0.0005 1.46608e-07 
176 1 0.0204534 0.0224948 0.00895155 0.000798451 -0.00662629 -0.0109682 4.28437e-08 -1.82036e-07 -1.29503e-07 0.0005 1.46608e-07 
177 1 0.0193669 0.0231578 0.0209709 0 -0 -0.01 0 0 0 0.0005 1.46608e-07 
178 1 0.0175933 0.0227114 0.0152967 -0.00325971 -0.00990257 -0.0126352 0 0 -1.43822e-06 0.0005 1.46608e-07 
179 1 0.0201646 0.0231648 0.0181277 0 0 -0.0778999 0 0 -1.43822e-06 0.0005 1.46608e-07 
180 1 0.0185532 0.0154026 0.0140514 0.00419512 0.00100157 -0.00158631 -3.85665e-07 -3.74924e-07 6.59667e-07 0.0005 1.46608e-07 
181 1 0.0157086 0.0202447 0.0166687 4.32529e-08 0.0286537 -0.00641321 3.27348e-11 -5.06684e-09 -2.58348e-08 0.0005 1.46608e-07 
182 1 0.0157582 0.0206978 0.0206796 0 -0 -0.01 0 0 0 0.0005 1.46608e-07 
183 1 0.0196655 0.0162549 0.0212528 0 -0 -0.01 0 0 0 0.0005 1.46608e-07 
184 1 0.0203746 0.0237413 0.0154901 1.41004e-05 0.000563209 0.000133607 1.90578e-07 -1.53288e-06 -4.65564e-07 0.0005 1.46608e-07 
185 1 0.0171947 0.0231327 0.0187115 0 -0 -0.01 0 0 0 0.0005 1.46608e-07 
186 1 0.0208702 0.0219483 0.0192301 0 -0 -0.01 0 0 0 0.0005 1.46608e-07 
187 1 0.0244125 0.0222527 0.0157387 -0.000128941 8.87342e-05 0.000102812 -7.55122e-07 -1.07032e-06 -5.88566e-06 0.0005 1.46608e-07 
188 1 0.0148427 0.0175164 0.0200467 0 -0 -0.01 0 0 0 0.0005 1.46608e-07 
189 1 0.0234459 0.0222086 0.0159907 -0.000417458 0.0128402 -0.00318628 -4.75171e-06 -4.1739e-06 1.90759e-06 0.0005 1.46608e-07 
190 1 0.0234951 0.0155642 0.0142645 0.00386666 0.00187187 0.00440794 -1.45359e-06 -8.19896e-07 -8.03714e-07 0.0005 1.46608e-07 
191 1 0.0197959 0.0241121 0.0129471 -0.00329172 -0.00121755 0.00101752 -5.85579e-07 -1.52667e-07 -4.46978e-07 0.0005 1.46608e-07 
192 1 0.0225786 0.0145542 0.0142946 0.00149833 0.00229572 -0.00237962 1.58261e-07 2.6e-07 -1.59595e-07 0.0005 1.46608e-07 
193 1 0.0235552 0.0224527 0.0143802 0.000334485 0.000317115 -0.000215501 5.74438e-07 5.54579e-07 1.73801e-06 0.0005 1.46608e-07 
194 1 0.016795 0.0183009 0.0159023 0.0104628 -0.0221393 -0.00928752 0 0 -1.43822e-06 0.0005 1.46608e-07 
195 1 0.019476 0.0214765 0.0185339 0 -0 -0.01 0 0 0 0.0005 1.46608e-07 
196 1 0.017015 0.0173582 0.0156152 0.00831696 -0.000470349 -0.00520952 0 0 -1.43822e-06 0.0005 1.46608e-07 
197 1 0.0184411 0.0214011 0.0192503 0 -0 -0.01 0 0 0 0.0005 1.46608e-07 
198 1 0.0183233 0.013922 0.0133118 0.000411289 2.54957e-05 0.00023255 4.77649e-07 -1.38821e-07 1.17895e-06 0.0005 1.46608e-07 
199 1 0.0205899 0.0152577 0.0151035 -0.000341561 -0.000684577 0.000735697 1.28747e-07 4.50009e-07 7.79624e-07 0.0005 1.46608e-07 
200 1 0.0177254 0.0176999 0.0233837 0 -0 -0.01 0 0 0 0.0005 1.46608e-07 
201 1 0.0222025 0.0232881 0.0164389 -0.00535275 0.016354 0.00446307 4.59089e-07 -2.76989e-07 -9.0398e-07 0.0005 1.46608e-07 
202 1 0.0151788 0.0208905 0.0237218 0 -0 -0.01 0 0 0 0.0005 1.46608e-07 
203 1 0.0144994 0.021992 0.0158761 -0.013721 0.0084985 -0.00805354 -1.325e-07 -1.13511e-06 7.80156e-07 0.0005 1.46608e-07 
204 1 0.019547 0.0190568 0.0205443 0 -0 -0.01 0 0 0 0.0005 1.46608e-07 
205 1 0.0165238 0.0225049 0.01546 0.00322887 0.000729444 0.00442237 -1.54532e-06 1.90834e-06 2.32706e-06 0.0005 1.46608e-07 
206 1 0.0221531 0.0215879 0.0184376 0 -0 -0.01 0 0 0 0.0005 1.46608e-07 
207 1 0.0217511 0.0154179 0.0206195 0 -0 -0.01 0 0 0 0.0005 1.46608e-07 
208 1 0.0217242 0.0143231 0.0138295 0.000458395 0.000121529 0.000503568 2.953e-08 8.21938e-08 -1.12293e-07 0.0005 1.46608e-07 
209 1 0.0177352 0.0223004 0.0193726 0 -0 -0.01 0 0 0 0.0005 1.46608e-07 
210 1 0.0250108 0.0215423 0.0161241 0.000215939 -0.0010389 -0.000516085 -4.59842e-07 -7.8683e-08 -8.62603e-07 0.0005 1.46608e-07 
211 1 0.0168131 0.0186693 0.0212088 0 -0 -0.01 0 0 0 0.0005 1.46608e-07 
212 1 0.016339 0.0232712 0.0129292 0.00500245 0.00199639 -0.00268198 4.20044e-07 -6.18661e-08 -9.18627e-07 0.0005 1.46608e-07 
213 1 0.0162474 0.0234551 0.0153163 0.00323157 0.000677632 0.000200166 -1.57513e-06 2.74712e-06 -2.8605e-06 0.0005 1.46608e-07 
214 1 0.0195777 0.0228623 0.0151076 0.00033069 0.00146377 -0.00248073 1.7838e-07 1.40037e-07 -2.54347e-07 0.0005 1.46608e-07 
215 1 0.0183434 0.0148895 0.0130602 0.000533527 0.00097796 0.00222302 -9.45917e-07 6.53131e-07 2.30403e-06 0.0005 1.46608e-07 
216 1 0.0211569 0.0230305 0.0149772 0.00249273 0.000128008 0.000520154 -3.54555e-07 2.52627e-06 -2.97447e-06 0.0005 1.46608e-07 
217 1 0.0173166 0.0173038 0.0205443 0 -0 -0.01 0 0 0 0.0005 1.46608e-07 
218 1 0.0205808 0.0239866 0.0164374 0.000415329 0.000125436 0.000570134 -2.74438e-07 -4.54587e-07 -1.50842e-06 0.0005 1.46608e-07 
219 1 0.0157671 0.0228261 0.0147141 0.00650252 -0.00247441 0.00320044 -2.00253e-06 5.27179e-06 -5.90979e-06 0.0005 1.46608e-07 
220 1 0.017432 0.0209072 0.0155491 0.00471157 0.00675815 -0.0044458 -2.0715e-07 1.0849e-06 -4.0553e-07 0.0005 1.46608e-07 
221 1 0.0185841 0.0230946 0.022196 0 -0 -0.01 0 0 0 0.0005 1.46608e-07 
222 1 0.0218469 0.0202145 0.0225544 0 -0 -0.01 0 0 0 0.0005 1.46608e-07 
223 1 0.0185782 0.0144165 0.0153738 -0.000736206 -0.000410068 -0.00184011 4.87461e-07 3.07742e-07 1.37676e-07 0.0005 1.46608e-07 
224 1 0.0200892 0.0228233 0.0233133 0 -0 -0.01 0 0 0 0.0005 1.46608e-07 
225 1 0.0219138 0.0200312 0.0167146 0.00707249 -0.00345891 -0.00252494 -7.88656e-08 2.23061e-07 -1.37247e-06 0.0005 1.46608e-07 
226 1 0.0160061 0.0185342 0.0225191 0 -0 -0.01 0 0 0 0.0005 1.46608e-07 
227 1 0.0241589 0.016071 0.0148143 0.00277318 0.00209272 0.0040107 -8.46887e-07 1.91078e-08 2.32853e-06 0.0005 1.46608e-07 
228 1 0.0199769 0.0152293 0.0206405 0 -0 -0.01 0 0 0 0.0005 1.46608e-07 
229 1 0.0193441 0.014884 0.0130425 0.00442463 7.83571e-05 0.000665773 -3.7895e-08 4.67936e-07 -1.38569e-06 0.0005 1.46608e-07 
230 1 0.0185364 0.0175324 0.0227748 0 -0 -0.01 0 0 0 0.0005 1.46608e-07 
231 1 0.0179919 0.0235695 0.0148461 -0.00330993 0.00623246 0.000910227 -1.67278e-06 -7.10364e-07 1.00413e-06 0.0005 1.46608e-07 
232 1 0.0156775 0.0145549 0.01425 -0.000572039 4.15406e-06 0.000758138 -7.92138e-08 -1.24684e-07 2.15019e-07 0.0005 1.46608e-07 
233 1 0.0153597 0.01815 0.018365 0 0 -0.0375906 0 0 -1.43822e-06 0.0005 1.46608e-07 
234 1 0.0182023 0.0221963 0.0159011 0.00367862 0.00109931 0.00177019 1.28998e-06 -2.91403e-06 3.76147e-06 0.0005 1.46608e-07 
235 1 0.021719 0.02391 0.01372 -0.000447761 0.000366144 -0.000469879 -1.24111e-05 7.59411e-06 -9.02173e-06 0.0005 1.46608e-07 
236 1 0.0232977 0.0208776 0.0155653 0.00671371 -0.00526311 -0.000207086 -1.61882e-07 1.13691e-06 -3.39432e-07 0.0005 1.46608e-07 
237 1 0.0157222 0.0184691 0.016749 -1.92061e-09 0.0290275 0.00330341 -8.85697e-15 2.73348e-09 -2.32624e-08 0.0005 1.46608e-07 
238 1 0.0217337 0.022689 0.0140661 0.00520865 0.00571607 -0.0100707 0 0 -1.43822e-06 0.0005 1.46608e-07 
239 1 0.0222818 0.0232018 0.013077 0.00483125 -0.00311277 -0.00307386 -2.93979e-05 1.56146e-05 -9.02444e-05 0.0005 1.46608e-07 
240 1 0.0227758 0.0183926 0.0159101 0.00650204 -0.00332293 0.000566786 2.01059e-08 5.44015e-07 -2.05963e-07 0.0005 1.46608e-07 
241 1 0.0163192 0.0214872 0.0238604 0 -0 -0.01 0 0 0 0.0005 1.46608e-07 
242 1 0.0145362 0.0197204 0.0218949 0 -0 -0.01 0 0 0 0.0005 1.46608e-07 
243 1 0.0215479 0.0227593 0.0171049 0.0325825 0.0101029 -0.108813 0 0 -1.43822e-06 0.0005 1.46608e-07 
244 1 0.0174813 0.0222487 0.0216051 0 -0 -0.01 0 0 0 0.0005 1.46608e-07 
245 1 0.0212137 0.0239467 0.0145814 0.00099937 -0.000379808 0.000472008 -1.36605e-06 2.65288e-06 -3.57939e-06 0.0005 1.46608e-07 
246 1 0.0173999 0.0148831 0.0219941 0 -0 -0.01 0 0 0 0.0005 1.46608e-07 
247 1 0.0228591 0.0169326 0.0203231 0 -0 -0.01 0 0 0 0.0005 1.46608e-07 
248 1 0.0212898 0.0195973 0.0238571 0 -0 -0.01 0 0 0 0.0005 1.46608e-07 
249 1 0.0150619 0.0191096 0.0192361 0 -0 -0.01 0 0 0 0.0005 1.46608e-07 
250 1 0.019024 0.0146227 0.0119365 0.00191848 -0.00108413 0.00151961 -8.46341e-07 -8.93408e-07 1.64581e-06 0.0005 1.46608e-07 
251 1 0.0208538 0.0167769 0.0184756 0 -0 -0.01 0 0 0 0.0005 1.46608e-07 
252 1 0.0204486 0.0225337 0.015478 0.00345348 0.000887747 0.00251146 -1.11257e-06 7.44179e-07 4.70095e-07 0.0005 1.46608e-07 
253 1 0.0229535 0.0231319 0.0139706 0.000514788 0.000381616 -6.73844e-05 -1.43793e-07 -5.05838e-07 4.21792e-07 0.0005 1.46608e-07 
254 1 0.0198208 0.0202351 0.0166125 -0.000307575 -0.00114315 0.00014388 1.35215e-08 1.78365e-08 -1.51871e-06 0.0005 1.46608e-07 
255 1 0.0217792 0.0202784 0.021379 0 -0 -0.01 0 0 0 0.0005 1.46608e-07 
