ITEM: TIMESTEP
2000000
ITEM: NUMBER OF ATOMS
325
ITEM: BOX BOUNDS ff ff ff
-0.02 0.43
-0.02 0.06
-0.02 0.1
ITEM: ATOMS id type x y z vx vy vz fx fy fz radius mass 
2 1 0.0175514 0.0236214 0.0156109 0.00117562 -9.21585e-05 0.000105225 4.3732e-07 -9.31075e-08 -3.51343e-07 0.0005 1.46608e-07 
3 1 0.0241489 0.0200345 0.0158926 -0.00715445 -0.0227598 0.00168128 0 0 -1.43822e-06 0.0005 1.46608e-07 
4 1 0.0160041 0.021187 0.0156299 0.00602407 -0.000787333 -0.00153487 3.35198e-07 -4.46681e-06 3.53055e-06 0.0005 1.46608e-07 
5 1 0.0208193 0.0137493 0.0140103 0.00119913 -0.000419004 0.00108075 -7.45995e-07 9.87068e-07 -6.76392e-07 0.0005 1.46608e-07 
6 1 0.0165733 0.0227276 0.0152861 0.00455038 -0.000468479 8.24882e-05 4.67819e-06 3.70305e-06 -8.0428e-06 0.0005 1.46608e-07 
7 1 0.0206445 0.0229593 0.015061 -0.00174509 0.0155703 -0.0173746 1.08298e-05 -5.34501e-06 -8.79584e-06 0.0005 1.46608e-07 
8 1 0.0207546 0.0164046 0.016036 0.00618512 -0.00935245 -0.00675797 -1.02543e-07 -1.1239e-07 -3.3261e-07 0.0005 1.46608e-07 
9 1 0.0261711 0.0180392 0.0217001 0.156532 -0.335216 0.380461 0 0 -1.43822e-06 0.0005 1.46608e-07 
10 1 0.0204688 0.0238879 0.0147308 0.00552033 -0.0038533 -0.00553449 0 0 -1.43822e-06 0.0005 1.46608e-07 
11 1 0.013089 0.0211506 0.0163171 0.000434844 0.00139569 -0.000204019 1.02601e-06 1.85745e-06 -9.87318e-07 0.0005 1.46608e-07 
12 1 0.0214077 0.0240578 0.0237548 0.0160828 0.129046 0.600609 0 0 -1.43822e-06 0.0005 1.46608e-07 
13 1 0.0172888 0.0240051 0.0130425 0.000170877 0.000993841 -0.00110331 1.07659e-06 -2.58643e-06 4.01153e-06 0.0005 1.46608e-07 
14 1 0.0173168 0.0239585 0.0165303 0.0002787 0.000455279 0.00112512 2.05018e-06 -6.12537e-07 -4.48328e-07 0.0005 1.46608e-07 
15 1 0.0233578 0.0192688 0.0159642 0.0989487 -0.122643 0.0261821 0 0 -1.43822e-06 0.0005 1.46608e-07 
19 1 0.0195164 0.0236507 0.0149245 0.000672318 0.00219269 -0.000811253 0 0 -1.43822e-06 0.0005 1.46608e-07 
20 1 0.0235077 0.0148825 0.015145 -0.00991385 0.0118684 -0.0370257 -2.94759e-07 2.7626e-07 -9.71626e-07 0.0005 1.46608e-07 
21 1 0.0208702 0.0234282 0.0114821 0.00138511 -0.00148129 -0.023138 -2.85697e-08 2.01417e-08 -2.84671e-08 0.0005 1.46608e-07 
22 1 0.018332 0.0155138 0.0155109 0.000721005 0.00467882 -0.00486709 -8.14749e-07 -1.94138e-07 1.67302e-06 0.0005 1.46608e-07 
23 1 0.0155647 0.02348 0.0145086 8.08347e-05 0.000205568 9.99579e-05 -2.70839e-06 -1.68737e-06 1.02259e-06 0.0005 1.46608e-07 
24 1 0.0178342 0.0146196 0.0121448 0.00425997 -0.00200945 0.00864007 -5.96091e-09 -3.17976e-08 3.79263e-08 0.0005 1.46608e-07 
25 1 0.0243393 0.0182356 0.0166068 0.00551443 0.00567491 -0.00191042 2.31941e-06 -2.67463e-06 7.36906e-06 0.0005 1.46608e-07 
26 1 0.0146076 0.0216453 0.0160913 0.000228593 0.000789743 8.71449e-05 -2.23945e-06 -4.77431e-07 9.2335e-07 0.0005 1.46608e-07 
27 1 0.0230551 0.0164988 0.0151381 0.00266936 0.0129529 0.00877172 -1.24622e-08 -2.24738e-07 2.07635e-07 0.0005 1.46608e-07 
28 1 0.0239361 0.0209999 0.0155839 -0.00256164 -0.0985193 0.0423043 0 0 -1.43822e-06 0.0005 1.46608e-07 
29 1 0.0197018 0.0227154 0.0152725 -1.82368e-05 0.0106967 -0.0107331 -3.7361e-06 2.55433e-05 -2.64556e-05 0.0005 1.46608e-07 
30 1 0.0208637 0.018151 0.0177407 -0.0102593 -0.0779519 0.0273714 0 0 -1.43822e-06 0.0005 1.46608e-07 
31 1 0.0215087 0.0246027 0.0193819 -0.100113 0.105092 0.22348 0 0 -1.43822e-06 0.0005 1.46608e-07 
32 1 0.0246273 0.017298 0.0168009 -0.0172863 -0.00778995 -0.0251309 6.59716e-07 -6.41456e-07 2.53594e-06 0.0005 1.46608e-07 
33 1 0.0235728 0.0214534 0.016467 -0.00222927 -0.044847 -0.00708876 0 0 -1.43822e-06 0.0005 1.46608e-07 
34 1 0.0208828 0.0146737 0.0143858 0.00145127 -0.000307796 0.000580925 -5.22317e-07 8.95002e-07 1.26954e-06 0.0005 1.46608e-07 
35 1 0.0169674 0.0167783 0.0154323 0.00534364 0.00229626 0.00344715 -1.04002e-06 -7.00977e-07 4.13549e-07 0.0005 1.46608e-07 
36 1 0.0192524 0.0229549 0.0161711 0.00903995 0.00408819 -0.00539803 -1.33521e-06 -5.95213e-05 1.23725e-05 0.0005 1.46608e-07 
37 1 0.0195901 0.0168033 0.0163099 0.00231679 -0.00351032 0.00364956 7.40506e-07 1.1474e-06 7.53039e-07 0.0005 1.46608e-07 
38 1 0.0209536 0.0217028 0.0164347 -0.00479874 -0.0158982 0.0112626 0 0 -1.43822e-06 0.0005 1.46608e-07 
39 1 0.0249 0.0168079 0.00782771 0.000816331 -0.0198059 0.0131948 -1.62143e-08 -6.90125e-08 5.34533e-08 0.0005 1.46608e-07 
40 1 0.0250785 0.0214652 0.0161744 -0.0084889 0.0114888 -0.00918066 3.79385e-06 -2.1908e-06 1.60973e-06 0.0005 1.46608e-07 
41 1 0.022191 0.0228396 0.0191431 -0.117391 -0.0819096 0.0714014 0 0 -1.43822e-06 0.0005 1.46608e-07 
42 1 0.0196925 0.0142914 0.0137376 0.0018908 -0.000386628 0.00227107 2.84249e-07 -4.05088e-07 -3.53365e-07 0.0005 1.46608e-07 
43 1 0.0163367 0.0237659 0.0139414 -0.000972293 0.000290828 0.0002902 3.47781e-06 -1.50762e-06 -5.02131e-06 0.0005 1.46608e-07 
44 1 0.0173145 0.019182 0.0162176 0.00618314 0.00201443 0.00157131 1.73821e-06 4.7654e-07 8.56347e-07 0.0005 1.46608e-07 
45 1 0.12014 0.0210465 0.00606171 3.67358e-16 8.2292e-15 -3.99459e-14 -5.07889e-22 5.29396e-23 0 0.0005 1.46608e-07 
46 1 0.0242253 0.0164688 0.0161483 -0.0240294 -0.0051749 -0.00553399 0 0 -1.43822e-06 0.0005 1.46608e-07 
47 1 -0.0104098 0.0151695 0.0402867 -0.17499 0.0282265 -0.445801 0 0 -1.43822e-06 0.0005 1.46608e-07 
48 1 0.0205914 0.0154668 0.0153333 0.00138066 0.000448877 0.000289555 -1.95468e-07 -3.38726e-07 -1.62614e-07 0.0005 1.46608e-07 
49 1 0.0162388 0.0143378 0.0138935 0.0010215 -0.00137396 0.00079482 1.67903e-07 -7.14105e-08 2.12021e-07 0.0005 1.46608e-07 
50 1 0.0222765 0.0179856 0.0168457 0.0043093 -0.00573874 -0.00466871 1.48283e-06 8.75363e-07 1.68312e-07 0.0005 1.46608e-07 
53 1 0.0259459 0.0185284 0.0168589 -0.00612452 -0.00268547 0.00145892 0 0 -1.43822e-06 0.0005 1.46608e-07 
54 1 0.0214471 0.0233873 0.015467 -0.00114999 0.00460721 -0.00910843 1.50733e-05 6.1643e-06 -2.57293e-05 0.0005 1.46608e-07 
56 1 0.0215507 0.015886 0.015724 0.00593768 -0.000395574 -0.00147291 -3.06822e-06 2.04588e-06 1.39866e-06 0.0005 1.46608e-07 
57 1 0.0235577 0.0222212 0.0182171 0.164664 0.0795368 -0.0585258 0 0 -1.43822e-06 0.0005 1.46608e-07 
58 1 0.0175968 0.0243867 0.0138834 -0.000140058 6.38379e-05 -0.000770259 -2.21622e-07 8.81108e-07 -7.53964e-07 0.0005 1.46608e-07 
59 1 0.0237656 0.0174258 0.0179772 -0.0206488 -0.0606929 0.0301054 0 0 -1.43822e-06 0.0005 1.46608e-07 
60 1 0.0227774 0.0176184 0.0157229 0.00259677 0.013506 0.00483297 1.90036e-07 -1.0364e-07 4.75473e-08 0.0005 1.46608e-07 
61 1 0.0173882 0.0154055 0.0140472 0.0049592 0.00268365 0.00270416 1.77274e-07 -1.10452e-06 -1.72642e-06 0.0005 1.46608e-07 
62 1 0.0235929 0.0172406 0.0164537 0.0123925 0.00307073 0.00272273 0 0 -1.43822e-06 0.0005 1.46608e-07 
63 1 0.0216865 0.0167431 0.0162355 -0.00206365 0.00135059 -0.00197586 5.15343e-08 -9.23953e-08 -2.10834e-08 0.0005 1.46608e-07 
64 1 0.0192879 0.0153954 0.0152423 0.000536672 -0.00156028 0.000467352 7.66197e-07 -2.68024e-07 -1.06765e-07 0.0005 1.46608e-07 
65 1 0.0227541 0.0221572 0.0148448 -0.00216532 0.00344206 -0.0216015 7.68396e-06 -3.39228e-07 2.21939e-05 0.0005 1.46608e-07 
66 1 0.0192982 0.0204501 0.0165564 0.00604513 0.011708 -0.00525312 -1.15098e-07 5.53907e-07 -8.99646e-08 0.0005 1.46608e-07 
67 1 0.0156924 0.0152537 0.0151508 0.00420616 -0.000604482 -0.00132895 -2.79673e-07 -4.43591e-08 1.76952e-07 0.0005 1.46608e-07 
68 1 0.0246938 0.019286 0.0178796 0.000958349 -0.0500819 0.0382098 0 0 -1.43822e-06 0.0005 1.46608e-07 
69 1 0.0182282 0.0229823 0.0161184 0.00449441 -0.000953002 -0.000753278 2.9799e-07 4.51684e-07 -1.23156e-06 0.0005 1.46608e-07 
70 1 0.0251901 0.0165783 0.0163946 -0.0125941 -0.00583803 -0.0226228 1.08623e-06 -1.4649e-06 -1.82919e-06 0.0005 1.46608e-07 
71 1 0.0146525 0.0150346 0.0148905 0.00117483 -0.00138992 0.000925912 3.46939e-08 8.62954e-08 -1.16226e-07 0.0005 1.46608e-07 
72 1 0.0163945 0.0194514 0.0165023 0.00467501 0.0024523 0.00108986 -5.97631e-07 -1.41225e-06 -1.0743e-06 0.0005 1.46608e-07 
73 1 0.0166549 0.0157486 0.0155828 -0.0108087 -0.00608436 -0.0106788 -5.48558e-08 -1.08586e-07 -1.36613e-06 0.0005 1.46608e-07 
74 1 0.0153041 0.0209735 0.0164368 0.015584 -0.00204765 -0.0104927 0 0 -1.43822e-06 0.0005 1.46608e-07 
75 1 0.0173864 0.0198787 0.0169317 0.00640631 0.00283068 0.000329022 1.06298e-07 -6.54589e-07 -3.61306e-08 0.0005 1.46608e-07 
76 1 0.0185762 0.0240933 0.0128246 0.000201144 0.00198595 0.000561437 -1.7182e-06 -3.40704e-07 4.91648e-07 0.0005 1.46608e-07 
77 1 0.0204187 0.0238346 0.0137231 -0.0010947 -0.00147963 -0.00148949 0 0 -1.43822e-06 0.0005 1.46608e-07 
79 1 0.0167654 0.0175585 0.0160238 0.00523377 0.0027373 0.00292842 2.38998e-07 -1.14806e-06 1.08609e-06 0.0005 1.46608e-07 
80 1 0.0180621 0.0139168 0.0141797 -0.00381387 -0.00108946 -0.0022345 -2.86195e-07 -2.46426e-07 -2.64151e-07 0.0005 1.46608e-07 
81 1 0.0193634 0.0144835 0.015646 0.00172519 -0.000701862 0.00282054 6.8683e-07 7.27564e-07 -5.06769e-07 0.0005 1.46608e-07 
82 1 0.0171344 0.024225 0.0174766 -6.72061e-05 0.000268385 -0.000106695 -1.24193e-07 8.68666e-07 1.48061e-06 0.0005 1.46608e-07 
83 1 0.0188062 0.0162158 0.014935 0.0043939 0.00168543 0.00383024 8.15689e-07 -6.88796e-07 -2.74681e-07 0.0005 1.46608e-07 
84 1 0.0204014 0.0182228 0.0167421 -0.015895 -0.0168807 0.0110207 0 0 -1.43822e-06 0.0005 1.46608e-07 
85 1 0.024028 0.0191515 0.0168823 -0.0332249 0.00102934 -0.0237417 0 0 -1.43822e-06 0.0005 1.46608e-07 
86 1 0.0204536 0.0140586 0.0131326 0.000891625 -0.000622244 0.00160836 -1.41212e-07 -7.37692e-09 -7.61019e-07 0.0005 1.46608e-07 
87 1 0.0175537 0.0217188 0.0150664 0.00629315 0.00157743 -0.00309843 -1.61579e-06 -6.34662e-07 9.54391e-07 0.0005 1.46608e-07 
89 1 0.0181492 0.0198449 0.0158694 0.00865782 0.0147093 -0.00310902 1.81902e-06 -1.33334e-06 4.5789e-07 0.0005 1.46608e-07 
90 1 0.0247965 0.0166793 0.0152679 0.0124393 0.0128998 0.00708496 -3.16066e-07 -2.95198e-07 -1.8968e-07 0.0005 1.46608e-07 
91 1 0.0189183 0.0243397 0.0169095 -0.0144909 0.00330642 0.0109305 3.47064e-07 -4.98579e-07 -1.19436e-06 0.0005 1.46608e-07 
92 1 0.0198649 0.0222431 0.0166967 0.0064981 0.0232681 -0.035045 0 0 -1.43822e-06 0.0005 1.46608e-07 
93 1 0.0191866 0.0236842 0.0139807 -0.000170755 -0.00267839 0.00131173 3.82981e-06 -2.29743e-05 4.92465e-05 0.0005 1.46608e-07 
94 1 0.0154321 0.0229552 0.0136379 0.00459165 0.00209661 -0.00229611 -2.4476e-06 7.60317e-08 -1.82665e-06 0.0005 1.46608e-07 
95 1 0.0188137 0.0146185 0.0119435 0.0029835 -0.00146052 0.00242442 -1.4299e-08 -1.61986e-08 2.69032e-08 0.0005 1.46608e-07 
96 1 0.0186484 0.015994 0.00843568 0.000915325 -0.0148806 0.0160112 8.65443e-10 2.38839e-08 9.45266e-09 0.0005 1.46608e-07 
97 1 0.0198745 0.0160179 0.0157602 0.00046853 -0.00160539 -0.00037877 4.0234e-07 -2.14741e-08 1.04432e-07 0.0005 1.46608e-07 
99 1 0.0185697 0.0244307 0.013762 0.000183339 -0.000111645 -0.000405869 4.34463e-06 -5.67318e-06 9.15219e-06 0.0005 1.46608e-07 
100 1 0.0172037 0.0201483 0.0159864 0.00579935 0.00172029 -2.72817e-05 1.76627e-06 7.52668e-07 1.8437e-06 0.0005 1.46608e-07 
101 1 0.0165158 0.023698 0.0150713 0.00199192 0.00026772 -0.000173979 1.96026e-06 3.35306e-06 -5.03958e-06 0.0005 1.46608e-07 
102 1 0.019262 0.0252125 0.0189597 -0.0807022 0.0207753 0.138111 0 0 -1.43822e-06 0.0005 1.46608e-07 
103 1 0.0199761 0.0222684 0.0203685 -0.196217 0.129806 -0.0896097 0 0 -1.43822e-06 0.0005 1.46608e-07 
104 1 0.0227969 0.0206715 0.0174995 0.0596884 0.0231795 0.245754 0 0 -1.43822e-06 0.0005 1.46608e-07 
105 1 0.019062 0.0139773 0.0130082 0.00409333 0.000378602 -0.000647381 -1.45247e-07 1.51478e-07 -2.61095e-07 0.0005 1.46608e-07 
106 1 0.0167448 0.0207691 0.0166232 0.00528262 0.00899001 -0.00560968 0 0 -1.43822e-06 0.0005 1.46608e-07 
107 1 0.0242012 0.0202313 0.017415 0.0263732 -0.0296977 0.00934185 0 0 -1.43822e-06 0.0005 1.46608e-07 
108 1 0.0231634 0.0202826 0.0158003 0.0249311 -0.06215 0.0565037 0 0 -1.43822e-06 0.0005 1.46608e-07 
109 1 0.0183202 0.0203042 0.0167409 0.0105297 0.0120251 -0.00201759 -4.4281e-07 3.943e-07 -6.90221e-08 0.0005 1.46608e-07 
110 1 0.023289 0.0156187 0.0144907 0.000722997 0.0172934 0.0195454 0 0 -1.43822e-06 0.0005 1.46608e-07 
111 1 0.0187917 0.0174803 0.0163129 0.00636693 0.00461027 0.000198296 0 0 -1.43822e-06 0.0005 1.46608e-07 
112 1 0.018602 0.0212209 0.0162784 0.00986395 -0.0076124 0.000363488 0 0 -1.43822e-06 0.0005 1.46608e-07 
113 1 0.0237879 0.022909 0.0156228 0.0255715 -0.0926951 0.11186 0 0 -1.43822e-06 0.0005 1.46608e-07 
114 1 0.0167425 0.014771 0.0146409 0.00248728 -0.00228453 -1.24683e-05 5.15195e-08 -5.68005e-08 3.27138e-07 0.0005 1.46608e-07 
115 1 0.0250169 0.0189071 0.0169799 -0.0202771 -0.0330985 -0.00976618 0 0 -1.43822e-06 0.0005 1.46608e-07 
116 1 0.0199795 0.0148402 0.0147807 0.00110056 -0.000654364 0.000196734 1.97839e-07 4.02959e-07 1.39115e-06 0.0005 1.46608e-07 
117 1 0.0229265 0.0212763 0.0157038 0.00700517 -0.0415695 0.0743643 0 0 -1.43822e-06 0.0005 1.46608e-07 
118 1 0.0212064 0.0129777 0.0213149 -0.29043 -0.095686 0.357014 0 0 -1.43822e-06 0.0005 1.46608e-07 
119 1 0.0146069 0.0200861 0.0166617 0.0108657 0.0127098 -0.00297182 -4.54469e-07 7.98048e-07 -1.36224e-07 0.0005 1.46608e-07 
120 1 0.0175661 0.00260043 0.043518 1.65949e-09 -2.32911e-09 1.12684e-10 -4.17165e-13 1.75994e-12 -9.19182e-14 0.0005 1.46608e-07 
121 1 0.0248898 0.0199212 0.0166605 0.00910545 -0.00250983 -1.2084e-05 -9.707e-08 5.61007e-07 -5.51001e-08 0.0005 1.46608e-07 
122 1 0.0213564 0.0206337 0.0167373 0.00593566 0.0011161 -0.029808 0 0 -1.43822e-06 0.0005 1.46608e-07 
123 1 0.0179168 0.0164923 0.0152986 0.00470454 0.00163694 0.00388804 -9.1089e-09 9.97064e-07 -6.21827e-07 0.0005 1.46608e-07 
124 1 0.0176024 0.0149215 0.013151 0.00468896 0.00145983 0.00580272 4.65787e-08 4.5266e-08 -5.86784e-07 0.0005 1.46608e-07 
125 1 0.0176574 0.0144694 0.0158958 0.00188752 -0.000887455 -0.00100924 8.53821e-08 -1.22465e-06 4.34593e-07 0.0005 1.46608e-07 
126 1 0.021332 0.0177502 0.0166168 0.00157305 0.003204 0.000153193 1.57925e-06 -6.74884e-07 -5.31883e-07 0.0005 1.46608e-07 
127 1 0.0162112 0.0202618 0.0159464 0.00581757 0.000712211 -0.000996525 -8.7378e-08 -3.9093e-07 1.24127e-06 0.0005 1.46608e-07 
128 1 0.0227686 0.0172477 0.0175036 -0.0275921 -0.0160431 -0.000776563 1.53708e-07 -5.27099e-08 1.05123e-07 0.0005 1.46608e-07 
129 1 0.0213938 0.024228 0.014024 -0.0251518 -0.0125972 -0.0216227 0 0 -1.43822e-06 0.0005 1.46608e-07 
130 1 0.0187442 0.0221616 0.0166717 -0.00924709 -0.000490856 0.0146213 0 0 -1.43822e-06 0.0005 1.46608e-07 
131 1 0.022306 0.0228597 0.013991 0.0110249 0.0234924 0.0119101 -0.000113328 -0.000380024 -0.000175291 0.0005 1.46608e-07 
132 1 0.0204717 0.0172655 0.0164595 0.00869689 -0.00904699 -0.00430865 -2.73535e-06 1.75919e-07 -1.6913e-06 0.0005 1.46608e-07 
133 1 0.0207376 0.022996 0.00973083 0.000528847 -0.0104699 -0.0215379 -5.32253e-09 -1.61901e-08 -2.90203e-09 0.0005 1.46608e-07 
134 1 0.0218837 0.0236129 0.0131589 -0.0021094 0.00335322 -0.00290169 -9.67926e-08 9.49138e-08 2.79669e-07 0.0005 1.46608e-07 
135 1 0.0187132 0.0227939 0.0151762 -0.000972757 0.0036758 -0.00489166 8.52205e-06 2.38336e-05 -3.13886e-05 0.0005 1.46608e-07 
136 1 0.0256247 0.0206933 0.0165004 -0.00548525 0.0183601 -0.00573205 -1.53858e-07 4.84398e-07 -1.81021e-07 0.0005 1.46608e-07 
137 1 0.0192537 0.0220074 0.0158221 0.00686888 -0.0168005 0.0111895 0 0 -1.43822e-06 0.0005 1.46608e-07 
138 1 0.0221138 0.0206599 0.0156473 0.0425581 0.00551216 0.000207811 0 0 -1.43822e-06 0.0005 1.46608e-07 
139 1 0.0237942 0.0170851 0.0154847 0.00768419 0.0125183 0.00650447 -3.65165e-07 -5.89845e-08 -2.07402e-08 0.0005 1.46608e-07 
140 1 0.0243435 0.0156008 0.0156659 -0.00713232 -0.00696672 -0.00277957 4.10663e-07 -4.16311e-08 -1.5729e-06 0.0005 1.46608e-07 
141 1 0.0175797 0.0182204 0.01615 0.00597404 0.00202359 0.00292959 6.64388e-07 6.00587e-07 5.22516e-07 0.0005 1.46608e-07 
142 1 0.0151824 0.0222214 0.0166722 0.000363728 0.00170475 0.00152812 -1.39334e-06 -4.72122e-07 -1.83266e-07 0.0005 1.46608e-07 
143 1 0.0192375 0.018544 0.00720269 0.000228882 -0.0242817 0.0027551 -1.32676e-09 -7.74384e-09 1.67034e-08 0.0005 1.46608e-07 
144 1 0.0223474 0.019688 0.015897 0.0138651 0.00325482 -0.000176356 -4.2074e-07 7.90173e-07 -1.1773e-07 0.0005 1.46608e-07 
145 1 0.018419 0.0237283 0.0150586 -0.000938156 0.00128563 -0.00126198 -1.19485e-05 5.63253e-06 -1.3393e-06 0.0005 1.46608e-07 
146 1 0.0205117 0.0193725 0.0168382 -0.00628672 0.00168199 -0.00594818 0 0 -1.43822e-06 0.0005 1.46608e-07 
147 1 0.0262601 0.022277 0.00872641 0.00137198 -0.0147767 -0.015299 7.41669e-06 1.37945e-06 2.17816e-07 0.0005 1.46608e-07 
148 1 0.0199631 0.0213465 0.0162151 -0.00312557 0.00771268 -0.00344322 -7.54769e-06 -5.17884e-06 8.69372e-06 0.0005 1.46608e-07 
149 1 0.0182731 0.0239744 0.016238 0.000525362 -0.000579995 -0.00202174 -3.31924e-08 -4.76407e-07 -8.86797e-07 0.0005 1.46608e-07 
151 1 0.0244506 0.0211737 0.0168956 -0.0134913 -0.0161867 -0.0254143 -6.3948e-06 3.24626e-06 1.15636e-05 0.0005 1.46608e-07 
152 1 0.022672 0.0221089 0.0162518 -0.0624422 -0.00189326 0.0649649 0 0 -1.43822e-06 0.0005 1.46608e-07 
153 1 0.0218826 0.0197838 0.0167822 0.00130902 -0.00198119 -0.0131204 0 0 -1.43822e-06 0.0005 1.46608e-07 
154 1 0.0267334 0.0233455 0.010742 0.00162881 -0.00260425 -0.0181459 -5.34655e-08 -7.60332e-08 -1.08472e-07 0.0005 1.46608e-07 
155 1 0.0161773 0.0232167 0.0130696 0.00239769 0.00113165 -0.00274508 4.77644e-06 -3.63124e-07 1.47352e-05 0.0005 1.46608e-07 
156 1 0.0204845 0.0215068 0.0185826 -0.0202516 -0.0951306 0.157536 0 0 -1.43822e-06 0.0005 1.46608e-07 
157 1 0.0198851 0.0180798 0.00727129 0.000470768 -0.024334 0.00503996 5.55136e-10 -5.77069e-09 1.36084e-08 0.0005 1.46608e-07 
158 1 0.0185823 0.0148535 0.012964 0.00457708 0.000920712 0.00457821 -1.14353e-07 3.25784e-08 7.47205e-08 0.0005 1.46608e-07 
159 1 0.0228835 0.0230293 0.0133233 0.00184753 0.00205845 -0.00891065 -4.41402e-06 -1.495e-05 -6.9618e-06 0.0005 1.46608e-07 
160 1 0.0187381 0.015432 0.00914699 0.000460377 -0.00729998 0.00934157 -2.27115e-10 1.09814e-08 -1.0296e-08 0.0005 1.46608e-07 
161 1 0.0185343 0.0183858 0.0159024 0.00293624 0.0146634 0.00100919 -8.36561e-09 -6.57717e-08 5.32535e-07 0.0005 1.46608e-07 
162 1 0.0212622 0.0231367 0.0131873 0.000127301 0.00529854 -0.0189935 1.0431e-07 -3.43136e-07 1.57284e-07 0.0005 1.46608e-07 
163 1 0.0216062 0.0142992 0.0137302 0.00107354 0.000202468 0.00104717 -4.57991e-07 -1.98605e-07 -7.9473e-07 0.0005 1.46608e-07 
164 1 0.0264643 0.0228571 0.00940944 0.00170205 -0.00741061 -0.014138 -2.63525e-06 -2.59836e-07 -1.19598e-06 0.0005 1.46608e-07 
165 1 0.0165046 0.0219634 0.0160122 0.0082854 0.00265793 -0.00231289 1.4215e-06 2.10198e-06 -3.02093e-06 0.0005 1.46608e-07 
166 1 0.0213013 0.0147666 0.0154166 -0.00163123 -0.00571098 -0.00282037 -5.91431e-08 2.45379e-07 2.76773e-07 0.0005 1.46608e-07 
167 1 0.0174919 0.0213576 0.0163087 0.00672797 0.0109554 -0.00670977 6.28387e-07 -3.12605e-07 8.51527e-08 0.0005 1.46608e-07 
168 1 0.020711 0.0232952 0.0105922 0.000206345 -0.0052327 -0.0234518 -2.40421e-09 -1.51395e-08 -1.2073e-08 0.0005 1.46608e-07 
169 1 0.0156245 0.0230446 0.0171715 0.000889574 0.0010366 0.000708888 1.04717e-07 8.50773e-07 1.55305e-06 0.0005 1.46608e-07 
170 1 0.0190613 0.0176111 0.0074351 0.000525613 -0.0220473 0.00824912 -1.07013e-08 -2.87773e-08 2.42385e-08 0.0005 1.46608e-07 
171 1 0.0181614 0.0150546 0.0145747 0.00407182 0.0014993 0.00364642 -3.34826e-07 -8.65548e-07 -8.96358e-07 0.0005 1.46608e-07 
172 1 0.0139686 0.0155443 0.0154124 0.000627122 0.00123324 -0.00218349 2.16009e-07 -3.2485e-07 1.13516e-07 0.0005 1.46608e-07 
173 1 0.0198348 0.0209901 0.00768253 0.000332808 -0.0217262 -0.0103757 -1.4647e-09 -1.39487e-08 8.11018e-09 0.0005 1.46608e-07 
175 1 0.0236141 0.0148975 0.012682 0.000481877 0.00548367 0.0183091 -7.14245e-09 5.96222e-08 5.34108e-08 0.0005 1.46608e-07 
176 1 0.0225619 0.0186591 0.0159317 0.0170174 -0.0262208 0.00282921 0 0 -1.43822e-06 0.0005 1.46608e-07 
177 1 0.0178306 0.0219689 0.0170311 -0.0122632 0.00813153 0.016181 5.24129e-07 -2.70862e-07 -1.18182e-06 0.0005 1.46608e-07 
178 1 0.0214841 0.0187713 0.0167624 0.00116985 0.0154383 -0.00054697 -3.38418e-08 2.65772e-07 3.73782e-08 0.0005 1.46608e-07 
179 1 0.0201867 0.0238937 0.0156945 -0.00225474 -0.00160214 -0.00775023 7.12472e-07 9.68915e-07 -2.72664e-06 0.0005 1.46608e-07 
180 1 0.0215354 0.0228978 0.0144496 0.00113399 0.0205608 0.00683935 1.42802e-05 -3.59831e-06 3.4976e-05 0.0005 1.46608e-07 
181 1 0.0176883 0.0226827 0.0152952 0.00417203 0.00108022 -0.000955273 -8.25393e-07 -2.80596e-07 1.73989e-07 0.0005 1.46608e-07 
182 1 0.013693 0.0219936 0.0158508 1.37849e-05 -0.000419619 -0.00101934 3.74716e-07 8.04579e-07 -6.01044e-07 0.0005 1.46608e-07 
183 1 0.0186794 0.0190585 0.0182115 -0.0039657 -0.0377331 0.0731718 0 0 -1.43822e-06 0.0005 1.46608e-07 
184 1 0.022571 0.0157013 0.0175282 -0.151333 -0.125728 -0.00437391 0 0 -1.43822e-06 0.0005 1.46608e-07 
185 1 0.0159342 0.0227435 0.0162697 0.00134117 0.000160617 0.00107876 1.60249e-06 -1.953e-07 -1.78861e-07 0.0005 1.46608e-07 
186 1 0.0202731 0.0245456 0.0191626 -0.0856711 0.0819346 0.226009 0 0 -1.43822e-06 0.0005 1.46608e-07 
187 1 0.0258545 0.0195787 0.0167567 -0.0179816 -0.0171477 -0.0385173 -4.38793e-07 5.85369e-08 -8.83083e-07 0.0005 1.46608e-07 
189 1 0.0261722 0.0212014 0.00781081 1.76187e-05 -0.0217557 -0.0142544 -3.08858e-10 -8.57738e-09 1.12233e-08 0.0005 1.46608e-07 
190 1 0.0244734 0.0221616 0.0157333 0.0468996 -0.0589742 0.0390311 0 0 -1.43822e-06 0.0005 1.46608e-07 
191 1 0.020844 0.0240267 0.0128387 -0.000840496 0.00143284 -0.000718175 7.2258e-07 -2.52625e-07 -3.86241e-07 0.0005 1.46608e-07 
192 1 0.0240552 0.0161363 0.0148718 0.00493046 0.0163645 0.0137549 -9.72861e-07 -1.75328e-06 3.71115e-06 0.0005 1.46608e-07 
193 1 0.0231446 0.0235311 0.0151686 0.0223698 -0.0509881 -0.00638132 0 0 -1.43822e-06 0.0005 1.46608e-07 
194 1 0.0192162 0.0151681 0.0136705 0.0043592 0.00126959 0.00471504 5.77053e-07 -2.59996e-07 -4.89812e-07 0.0005 1.46608e-07 
195 1 0.0168313 0.0231753 0.0161421 0.00132733 -0.000427039 0.000693539 2.62729e-06 -2.38886e-06 1.2406e-07 0.0005 1.46608e-07 
196 1 0.0180577 0.0140319 0.0131864 0.00291832 0.000180394 -0.00203519 1.59623e-07 -4.68626e-07 -5.68002e-08 0.0005 1.46608e-07 
197 1 0.016565 0.0184754 0.0163684 0.0055808 0.00294283 0.00266331 1.08396e-06 -1.04399e-06 9.68443e-07 0.0005 1.46608e-07 
198 1 0.0197191 0.0143996 0.012307 0.00631356 0.00220581 -0.00366182 -3.01892e-11 1.04859e-08 -1.74101e-08 0.0005 1.46608e-07 
199 1 0.0237184 0.021948 0.0148798 0.00233759 0.00790818 0.000503974 3.49441e-07 -1.07683e-05 -1.6006e-05 0.0005 1.46608e-07 
200 1 0.0179734 0.0209119 0.0155537 0.00529625 0.000772625 -0.00265787 3.63821e-07 -1.62455e-07 1.26233e-06 0.0005 1.46608e-07 
201 1 0.0191088 0.015289 0.0162203 -0.00511717 -0.00748675 -0.000450175 -1.52189e-07 -5.44503e-07 -2.08999e-07 0.0005 1.46608e-07 
202 1 0.0171203 0.0230934 0.0133024 0.0021144 0.00129433 -0.00574004 9.86186e-06 -3.70245e-06 2.65875e-05 0.0005 1.46608e-07 
203 1 0.0147234 0.0231049 0.014897 0.000608017 0.00115643 0.000883583 -1.22496e-07 -5.20821e-07 -9.66971e-07 0.0005 1.46608e-07 
204 1 0.0169805 0.0210064 0.0155245 0.00564841 8.87144e-05 -0.00168568 3.15018e-07 -1.66331e-06 2.17612e-06 0.0005 1.46608e-07 
205 1 0.0141669 0.0228595 0.0156905 0.000348683 0.000635966 0.000385057 4.4521e-08 5.04846e-07 9.99076e-07 0.0005 1.46608e-07 
206 1 0.0154325 0.0146582 0.0143907 0.000694154 0.000159792 -0.00090022 -2.20359e-07 -2.27272e-08 2.25316e-07 0.0005 1.46608e-07 
207 1 0.0232192 0.0196013 0.017405 0.0103955 -0.0223601 0.0960239 0 0 -1.43822e-06 0.0005 1.46608e-07 
208 1 0.0228272 0.0146242 0.014418 0.00172534 0.0022001 -0.00144492 1.01305e-06 -7.05847e-07 2.26821e-07 0.0005 1.46608e-07 
209 1 0.0182541 0.0220322 0.0158078 0.00787723 -0.00335188 0.00283518 6.17918e-06 7.21309e-07 -2.74498e-06 0.0005 1.46608e-07 
211 1 0.0140475 0.0208843 0.0164186 0.000827346 -0.000788687 0.000805239 -8.20303e-07 -1.34722e-06 -7.3596e-08 0.0005 1.46608e-07 
212 1 0.0192903 0.0168143 0.00783315 0.000894408 -0.0196441 0.0126712 -6.0638e-09 -8.74856e-08 8.51817e-08 0.0005 1.46608e-07 
213 1 0.0172084 0.0235379 0.0143711 0.000710088 0.00485243 -0.0026861 7.33586e-06 -1.65918e-06 6.8256e-06 0.0005 1.46608e-07 
214 1 0.0223056 0.0229825 0.0151701 0.00656868 -0.00160287 0.0126495 1.07727e-05 1.97077e-05 -3.90488e-05 0.0005 1.46608e-07 
215 1 0.0217765 0.0220455 0.0148938 -0.000533291 0.0154716 -0.019235 -5.46347e-07 -6.43538e-06 2.41508e-05 0.0005 1.46608e-07 
216 1 0.0238899 0.0196129 0.0203174 0.0575934 -0.0675182 0.0741661 0 0 -1.43822e-06 0.0005 1.46608e-07 
217 1 0.0177559 0.017923 0.0177179 0.000639108 -0.0799122 0.0285791 0 0 -1.43822e-06 0.0005 1.46608e-07 
218 1 0.0184899 0.0139892 0.016174 -0.000403505 -0.00146054 0.00270526 -3.42598e-07 -4.15747e-07 9.17028e-07 0.0005 1.46608e-07 
219 1 0.0199784 0.0200207 0.00736018 3.95188e-05 -0.0251734 -0.00749763 1.47479e-09 -5.71895e-09 1.07501e-08 0.0005 1.46608e-07 
220 1 0.0216053 0.0233765 0.0119029 0.00146807 0.00281691 -0.024846 -4.15248e-08 -6.48169e-09 -9.18155e-09 0.0005 1.46608e-07 
221 1 0.0173162 0.0225556 0.0142374 0.00347434 0.00415679 -0.00216602 7.45093e-06 2.79244e-06 -1.12455e-06 0.0005 1.46608e-07 
222 1 0.0220185 0.0151096 0.0161461 0.00160823 -0.00213868 -0.000242444 6.57627e-07 -3.6481e-07 -2.89719e-07 0.0005 1.46608e-07 
223 1 0.0189235 0.0144449 0.0143578 0.00292879 6.81758e-05 0.00332918 5.09641e-07 -9.40809e-08 -1.45888e-07 0.0005 1.46608e-07 
224 1 0.0133214 0.0202254 0.0166166 -0.00166598 0.000498579 -0.0009782 1.54474e-06 -5.02944e-06 -1.52682e-07 0.0005 1.46608e-07 
225 1 0.0227948 0.015645 0.0155893 0.000445134 0.00359111 -0.00979748 1.41582e-07 3.9875e-07 -9.9079e-07 0.0005 1.46608e-07 
226 1 0.0165553 0.021765 0.0150332 0.00467394 -0.000786927 -0.00124145 -1.2706e-06 -1.45287e-06 1.17913e-06 0.0005 1.46608e-07 
228 1 0.0218556 0.0147915 0.0145847 0.0014074 0.000670766 -0.000886561 6.24287e-07 -1.25139e-06 5.08166e-07 0.0005 1.46608e-07 
229 1 0.0236842 0.0181635 0.0158551 0.000886987 0.0187864 0.00205979 -5.04168e-07 6.4179e-06 6.12751e-07 0.0005 1.46608e-07 
230 1 0.0172023 0.0141695 0.0136857 -0.00098074 -0.00442636 -0.00690904 4.63467e-07 -6.47452e-07 1.70345e-07 0.0005 1.46608e-07 
231 1 0.0181642 0.0236047 0.0140923 -2.48669e-05 -0.000661373 -0.00312793 2.75404e-06 -2.33428e-06 7.35777e-06 0.0005 1.46608e-07 
232 1 0.0171831 0.0160455 0.0147873 0.0047904 0.00254198 0.00333323 2.38166e-07 -8.10277e-08 -1.47662e-06 0.0005 1.46608e-07 
233 1 0.0168676 0.023399 0.012387 0.0024408 0.00107661 -0.00171188 8.34511e-06 -2.44601e-06 1.74707e-05 0.0005 1.46608e-07 
234 1 0.0224903 0.014722 0.0153543 0.00185704 0.000497295 -0.000986629 1.1133e-06 -1.72677e-06 1.82278e-07 0.0005 1.46608e-07 
235 1 0.0196568 0.0244723 0.0136037 0.00022238 -0.000433035 0.000456915 -3.18247e-06 -9.16393e-06 1.09984e-05 0.0005 1.46608e-07 
236 1 0.0257142 0.0173812 0.0168405 -0.0208038 -0.0323586 -0.0247758 -3.95765e-07 2.72298e-07 -9.14496e-07 0.0005 1.46608e-07 
237 1 0.0174009 0.0223567 0.0162157 0.00977388 0.00289325 0.0015402 4.60357e-06 -3.07177e-06 -1.37062e-06 0.0005 1.46608e-07 
238 1 0.0234432 0.0152636 0.0135686 -0.00184973 0.0145571 0.0237132 -4.34342e-08 5.25605e-09 1.19425e-07 0.0005 1.46608e-07 
239 1 0.0242178 0.0149316 0.0102847 -0.000133512 -0.00874632 0.0213096 -2.12454e-08 3.1854e-08 -5.71967e-08 0.0005 1.46608e-07 
240 1 0.018449 0.0143804 0.0152547 0.00142312 -0.000142834 0.00308899 5.66837e-07 -3.77993e-08 -3.96782e-07 0.0005 1.46608e-07 
241 1 0.0150471 0.0223952 0.0155972 0.000436621 0.00110408 0.000234138 -1.26402e-06 -8.70581e-07 1.07036e-06 0.0005 1.46608e-07 
242 1 0.0163847 0.0227672 0.013939 5.99374e-07 -0.000201465 -0.000391674 -5.72565e-07 -4.85052e-07 2.23399e-07 0.0005 1.46608e-07 
244 1 0.0163873 0.0236865 0.0168779 -0.000221233 -6.20951e-05 -0.000350004 2.24236e-07 -1.12369e-07 1.87407e-06 0.0005 1.46608e-07 
245 1 0.0223582 0.023793 0.0145277 -0.0479629 -0.0459624 0.0866351 0 0 -1.43822e-06 0.0005 1.46608e-07 
246 1 0.0179436 0.0173589 0.0157963 0.00546764 0.00181155 0.00361598 7.02751e-08 6.57108e-07 7.73164e-08 0.0005 1.46608e-07 
247 1 0.0174265 0.0151877 0.0152396 0.00125084 0.000258264 0.000455799 4.93616e-07 1.8188e-08 3.1509e-07 0.0005 1.46608e-07 
248 1 0.0246171 0.0176572 0.0157316 0.00135275 -0.00233338 0.00168377 -4.0124e-08 3.56086e-07 1.14697e-07 0.0005 1.46608e-07 
249 1 0.0155734 0.0232361 0.0154779 0.000336896 0.00027007 0.000490881 -9.58577e-07 -4.73517e-07 6.64872e-07 0.0005 1.46608e-07 
250 1 0.0232191 0.018299 0.0167299 0.00376431 0.000109105 0.00578336 -1.7819e-07 1.87856e-07 -1.26175e-06 0.0005 1.46608e-07 
251 1 0.0243945 0.0190058 0.0159426 0.0130181 -0.0350431 -0.0022432 3.78018e-08 6.88228e-07 9.26336e-08 0.0005 1.46608e-07 
252 1 0.0203621 0.0221384 0.0157538 0.011556 0.0106056 -0.00629059 7.96287e-06 8.35677e-06 -8.97733e-06 0.0005 1.46608e-07 
253 1 0.0243736 0.0152509 0.00942725 -2.45307e-05 -0.0128547 0.0217276 -2.11246e-09 1.5658e-08 5.15062e-09 0.0005 1.46608e-07 
254 1 0.0233691 0.0226501 0.0142452 -9.33331e-05 -0.00208722 -0.00832898 -9.8033e-08 2.34687e-07 1.55047e-06 0.0005 1.46608e-07 
255 1 0.0247729 0.0204808 0.0185162 0.267984 -0.148805 0.0761643 0 0 -1.43822e-06 0.0005 1.46608e-07 
256 1 0.0175907 0.0208441 0.0171616 0.00652821 0.0102352 -0.0115454 0 0 -1.43822e-06 0.0005 1.46608e-07 
257 1 0.0206548 0.015739 0.0235465 0 -0 -0.01 0 0 0 0.0005 1.46608e-07 
258 1 0.0231263 0.0190181 0.025621 0 -0 -0.01 0 0 0 0.0005 1.46608e-07 
259 1 0.0149358 0.0159595 0.0157429 -0.00333132 -0.0443223 -0.0316134 1.22269e-08 -2.60412e-07 -3.17255e-08 0.0005 1.46608e-07 
260 1 0.0198166 0.0217235 0.0268261 0 -0 -0.01 0 0 0 0.0005 1.46608e-07 
261 1 0.019422 0.0234435 0.0204502 0 -0 -0.01 0 0 0 0.0005 1.46608e-07 
262 1 0.0172018 0.0214809 0.0219372 0 -0 -0.01 0 0 0 0.0005 1.46608e-07 
263 1 0.0182333 0.0181926 0.0237348 0 -0 -0.01 0 0 0 0.0005 1.46608e-07 
264 1 0.0221752 0.016147 0.0250981 0 -0 -0.01 0 0 0 0.0005 1.46608e-07 
265 1 0.0170654 0.0208125 0.0186372 0 -0 -0.01 0 0 0 0.0005 1.46608e-07 