ITEM: TIMESTEP
4000000
ITEM: NUMBER OF ATOMS
277
ITEM: BOX BOUNDS ff ff ff
-0.02 0.43
-0.02 0.06
-0.02 0.1
ITEM: ATOMS id type x y z vx vy vz fx fy fz radius mass 
2 1 0.0192569 0.0236904 0.0152525 -0.000307043 0.000611962 -0.000115038 3.03876e-06 1.09208e-06 -2.63643e-06 0.0005 1.46608e-07 
3 1 0.0247034 0.0222631 0.0163585 7.67203e-05 0.000560576 0.0010018 6.99328e-08 -1.18186e-07 6.51017e-08 0.0005 1.46608e-07 
4 1 0.017424 0.0216811 0.0150987 0.0102625 -0.00602688 0.00580478 0 0 -1.43822e-06 0.0005 1.46608e-07 
5 1 0.0222628 0.014467 0.0141349 0.00445049 0.000948707 0.0040065 -1.26431e-06 -3.66074e-07 -2.14066e-06 0.0005 1.46608e-07 
6 1 0.020235 0.0237905 0.015457 -0.0015382 0.000285621 -0.0016078 -9.20373e-09 -3.44056e-07 -1.1882e-06 0.0005 1.46608e-07 
8 1 0.0208285 0.0165576 0.0161255 -0.000868297 0.00640995 0.00362585 2.2837e-08 -3.53474e-08 -1.21979e-09 0.0005 1.46608e-07 
9 1 0.0206026 0.0154407 0.0163729 0.00439275 -0.00065311 0.00329859 9.71684e-08 2.36985e-07 1.83711e-07 0.0005 1.46608e-07 
10 1 0.0142144 0.0221245 0.0159616 0.000434025 -0.00265976 0.00146251 8.66912e-06 3.49078e-06 -1.36754e-06 0.0005 1.46608e-07 
11 1 0.019408 0.0206278 0.00758008 3.74298e-05 -0.0235882 -0.00978965 1.03693e-09 -1.11572e-08 8.37055e-09 0.0005 1.46608e-07 
12 1 0.0226005 0.014888 0.0155513 0.00579275 -0.001608 0.00536885 0 0 -1.43822e-06 0.0005 1.46608e-07 
13 1 0.0203447 0.0232128 0.0103944 0.00223661 -0.0040831 -0.0140059 -2.51144e-09 -3.54964e-08 -7.59308e-08 0.0005 1.46608e-07 
14 1 0.0178006 0.0240291 0.0164746 0.00218835 0.00151939 0.00127573 -4.45146e-07 -3.9784e-06 -3.01248e-07 0.0005 1.46608e-07 
15 1 0.0204654 0.0228629 0.0151626 0.00428468 0.00553654 -0.00893195 -7.76858e-07 4.27495e-06 6.4702e-07 0.0005 1.46608e-07 
19 1 0.0172044 0.0216084 0.0171792 -0.0016145 -0.00438327 -0.00733345 0 0 -1.43822e-06 0.0005 1.46608e-07 
20 1 0.0134814 0.0211722 0.0181354 -0.00279461 -0.00820317 0.00142419 5.63433e-07 1.20848e-07 -1.28073e-06 0.0005 1.46608e-07 
21 1 0.0202146 0.0199509 0.0208372 -0.269548 0.124775 0.358968 0 0 -1.43822e-06 0.0005 1.46608e-07 
22 1 0.0201704 0.0156476 0.0154952 0.00326687 0.00676423 0.00562545 3.46203e-07 1.65344e-07 2.47666e-07 0.0005 1.46608e-07 
23 1 0.0168187 0.0238696 0.0134193 0.000281572 6.50636e-05 -0.00089581 -2.03663e-06 -1.01797e-06 -7.39288e-07 0.0005 1.46608e-07 
24 1 0.0190238 0.0240224 0.0161664 0.000233668 3.23924e-05 0.000244934 -5.39713e-07 -2.12992e-07 -3.32971e-07 0.0005 1.46608e-07 
26 1 0.0166117 0.0232121 0.0148988 -0.00801648 -0.00325733 0.00457592 -1.61688e-06 -1.57637e-05 -3.42373e-05 0.0005 1.46608e-07 
27 1 0.0265793 0.0233703 0.0115906 0.00024581 0.00114731 -0.0253242 -8.16183e-10 -1.3054e-08 -7.85872e-09 0.0005 1.46608e-07 
28 1 0.0230338 0.0235156 0.0149318 0.00338112 0.00156228 -0.00451067 -7.54741e-05 -6.78953e-05 4.05722e-05 0.0005 1.46608e-07 
29 1 0.0185973 0.0148606 0.015289 0.00445194 0.000750907 0.0023129 -7.40986e-07 -3.81827e-06 -3.22336e-07 0.0005 1.46608e-07 
31 1 0.018539 0.024722 0.0179682 0.00374643 0.00102853 0.000837329 -7.83316e-07 -2.5886e-07 6.13092e-07 0.0005 1.46608e-07 
32 1 0.0203317 0.0145034 0.0161538 0.00276896 9.50171e-05 0.00167721 -7.73418e-07 1.2258e-07 -1.81213e-07 0.0005 1.46608e-07 
33 1 0.0128364 0.0208137 0.0164629 -0.00449263 -0.00676976 0.00152521 5.04436e-07 3.00843e-08 -1.37719e-06 0.0005 1.46608e-07 
34 1 0.0186344 0.0163299 0.0150286 0.00220196 -0.00759449 -0.00193941 1.28371e-06 9.5302e-07 -1.50823e-06 0.0005 1.46608e-07 
35 1 0.0218663 0.020571 0.0156791 0.000851434 0.0306571 -0.0128475 5.57627e-06 1.3956e-06 6.04807e-06 0.0005 1.46608e-07 
36 1 0.0178672 0.0198996 0.0158723 0.0075388 -0.0125303 0.00864363 -3.17131e-07 -2.58413e-07 -7.07974e-06 0.0005 1.46608e-07 
37 1 0.0168744 0.022556 0.0168406 0.00492013 0.00162534 0.00562862 0 0 -1.43822e-06 0.0005 1.46608e-07 
38 1 0.0173481 0.0161289 0.0160416 -0.00143936 -0.00310598 0.000755254 1.76108e-06 8.34704e-07 1.99807e-07 0.0005 1.46608e-07 
39 1 0.0278805 0.0200322 0.0157133 0.000983519 0.0205554 -0.005358 1.06742e-08 -1.10624e-07 1.36912e-08 0.0005 1.46608e-07 
40 1 0.0242237 0.0169124 0.00659102 -1.17701e-14 -2.41546e-14 -7.91756e-14 7.01449e-21 -1.21232e-20 -3.17637e-21 0.0005 1.46608e-07 
41 1 0.0152095 0.0155766 0.0154685 0.00418924 -0.00169165 -0.0046172 -2.68639e-07 1.27998e-07 1.3988e-07 0.0005 1.46608e-07 
42 1 0.0232797 0.0186724 0.0193528 -0.0558965 0.0904324 0.295383 0 0 -1.43822e-06 0.0005 1.46608e-07 
43 1 0.0186476 0.0240948 0.0129086 -0.000220971 -0.000365196 0.000200214 2.39769e-08 1.74998e-07 -4.46995e-07 0.0005 1.46608e-07 
44 1 0.0173222 0.019637 0.0177925 -0.00777784 -0.00860518 0.000353998 0 0 -1.43822e-06 0.0005 1.46608e-07 
45 1 0.12014 0.0210465 0.00606171 3.63483e-16 8.22944e-15 -3.99459e-14 -9.09899e-22 1.58819e-22 0 0.0005 1.46608e-07 
46 1 0.0165681 0.0199124 0.0167243 -0.00607759 -0.0117543 0.0251153 0 0 -1.43822e-06 0.0005 1.46608e-07 
48 1 0.0212421 0.0143833 0.0169189 -0.064491 -0.00701618 -0.0218185 2.18475e-07 1.08143e-06 -5.40489e-07 0.0005 1.46608e-07 
50 1 0.0161745 0.0241167 0.0178474 0.00020198 0.00134123 0.00253972 0 0 -1.43822e-06 0.0005 1.46608e-07 
53 1 0.0148237 0.0149431 0.0147978 0.00113555 0.000760028 -0.00326089 -2.6631e-07 8.39374e-07 -1.07774e-06 0.0005 1.46608e-07 
54 1 0.0235142 0.0212625 0.0153639 -0.00155285 0.0244651 -0.0137865 -7.29115e-08 1.15883e-07 -5.72019e-07 0.0005 1.46608e-07 
57 1 0.0238919 0.0165591 0.0160767 -0.0096829 0.0030625 0.00870006 0 0 -1.43822e-06 0.0005 1.46608e-07 
58 1 0.0174483 0.0243681 0.0139354 -0.000326199 -0.000384115 0.000232315 4.53748e-07 -1.31127e-07 -1.12069e-06 0.0005 1.46608e-07 
59 1 0.0236423 0.0228752 0.0149851 -0.000139009 -0.00193781 -0.00407911 -1.61972e-06 -2.75231e-06 -6.72193e-07 0.0005 1.46608e-07 
60 1 0.0263821 0.0232756 0.0105166 0.00328842 0.0019312 -0.00101686 5.96986e-07 -4.90292e-07 3.30745e-08 0.0005 1.46608e-07 
61 1 0.021363 0.0236247 0.0137294 -0.00457556 -0.000146858 -0.000327927 5.51623e-07 -9.00363e-08 -2.81132e-07 0.0005 1.46608e-07 
62 1 0.0161912 0.0150477 0.0149598 0.00153087 -0.00189398 0.000438684 5.3838e-07 5.53416e-08 1.3484e-06 0.0005 1.46608e-07 
63 1 0.0213934 0.0230412 0.0147431 -0.00251894 0.00319158 -0.00697675 -1.74998e-07 -9.43016e-07 -1.0659e-08 0.0005 1.46608e-07 
64 1 0.0217399 0.0201225 0.0165635 0.0193641 0.0183424 -0.0137048 -4.41631e-06 -2.55679e-06 8.44787e-06 0.0005 1.46608e-07 
65 1 0.0217872 0.0236641 0.0151622 -0.000553553 -0.000822522 0.000273035 -2.57587e-06 1.11393e-06 -1.09767e-06 0.0005 1.46608e-07 
66 1 0.0115476 0.00845329 0.0357133 0.0276642 0.0568236 -0.179448 0 0 -1.43822e-06 0.0005 1.46608e-07 
67 1 0.0237682 0.0214181 0.0169726 0.0249627 0.0495909 -0.10874 0 0 -1.43822e-06 0.0005 1.46608e-07 
69 1 0.016964 0.0194078 0.0159356 0.00106908 0.000622755 -0.000925961 -2.44427e-08 6.35926e-07 -2.5875e-07 0.0005 1.46608e-07 
70 1 0.0246501 0.0209088 0.0164101 -0.00597495 0.0126085 -0.00458113 0 0 -1.43822e-06 0.0005 1.46608e-07 
71 1 0.0209962 0.0230099 0.013265 0.000583432 0.00864436 -0.0217145 8.50088e-08 -1.29164e-07 8.85026e-08 0.0005 1.46608e-07 
72 1 0.0137423 0.0204045 0.0165797 -0.00425644 -0.00962991 0.000159214 7.59717e-08 9.98792e-07 -1.65734e-07 0.0005 1.46608e-07 
73 1 0.0156084 0.014581 0.0142947 0.00133454 -0.000792815 -0.000767898 -6.94139e-07 1.19686e-06 4.4382e-07 0.0005 1.46608e-07 
74 1 0.0224072 0.0152546 0.0164834 0.00256758 -0.0118333 -0.00414266 0 0 -1.43822e-06 0.0005 1.46608e-07 
75 1 0.0199917 0.0242021 0.0163428 0.00207508 -0.000657801 -0.00274031 0 0 -1.43822e-06 0.0005 1.46608e-07 
76 1 0.015193 0.0187008 0.0167731 0.00280649 -0.00463205 0.00135533 -8.74077e-08 6.94752e-07 3.7448e-08 0.0005 1.46608e-07 
77 1 0.0238012 0.0187784 0.0159407 2.92255e-10 0.0240811 0.00166109 -4.70605e-13 1.45779e-09 -1.88248e-08 0.0005 1.46608e-07 
79 1 0.0151362 0.0228356 0.0137518 0.00494852 0.00257193 -0.00152787 2.67828e-07 -8.4152e-09 -1.87515e-07 0.0005 1.46608e-07 
80 1 0.0191502 0.0178726 0.016608 -0.000197869 0.00796382 0.004166 -4.37719e-08 5.2788e-07 8.05808e-08 0.0005 1.46608e-07 
81 1 0.0206998 0.022974 0.00974295 0.00207633 -0.00482621 -0.00988744 -5.53779e-08 -7.99855e-08 -1.57199e-07 0.0005 1.46608e-07 
82 1 0.0195878 0.0202844 0.0168973 -0.00208187 0.00907694 -0.00359942 2.81403e-07 6.91923e-06 1.37998e-06 0.0005 1.46608e-07 
83 1 0.0198451 0.0222415 0.00860877 -0.00024488 -0.0142569 -0.0168863 -6.32962e-10 -4.71466e-08 -8.91117e-09 0.0005 1.46608e-07 
84 1 0.0202859 0.0232431 0.0163647 0.00380958 -0.00109049 0.00212301 -1.4462e-06 1.12414e-06 -2.10908e-08 0.0005 1.46608e-07 
85 1 0.0185689 0.0137575 0.0138742 0.0176202 0.00545693 0.00730367 -4.82676e-06 -5.56166e-06 -3.52674e-06 0.0005 1.46608e-07 
86 1 0.0248682 0.021756 0.0158846 0.000339091 0.00162736 0.00379486 6.88617e-08 -3.42419e-07 2.86637e-07 0.0005 1.46608e-07 
87 1 0.0212751 0.0145506 0.0142647 0.00401015 0.00186216 0.00493933 -1.81245e-06 -1.01198e-06 -2.30807e-06 0.0005 1.46608e-07 
89 1 0.0139041 0.0212432 0.0172291 -0.00593626 -0.0108631 0.000294255 2.84401e-07 -3.91132e-07 1.40588e-06 0.0005 1.46608e-07 
90 1 0.027492 0.0214313 0.0150507 0.00260811 0.0144287 -0.0137927 1.85278e-09 -1.21438e-07 1.05909e-07 0.0005 1.46608e-07 
92 1 0.0234056 0.0174035 0.0156256 0.00106326 0.0205227 0.00810699 -2.54008e-09 7.13632e-09 -1.34666e-08 0.0005 1.46608e-07 
93 1 0.0196689 0.0245568 0.0172204 0.0011414 -0.000755244 -0.00123228 3.28222e-08 -6.26237e-07 -6.85594e-07 0.0005 1.46608e-07 
94 1 0.021478 0.0222089 0.0153991 -0.0163733 -0.0376335 -0.0267275 0 0 -1.43822e-06 0.0005 1.46608e-07 
95 1 0.0208012 0.019251 0.0187721 -0.215516 0.0525494 0.0289265 0 0 -1.43822e-06 0.0005 1.46608e-07 
96 1 0.0226892 0.0183348 0.0164293 0.0188539 0.0292395 -0.00996707 -5.88795e-08 5.19105e-07 -8.56658e-07 0.0005 1.46608e-07 
97 1 0.0237794 0.0151121 0.0152508 0.00459728 0.00311306 0.00367981 7.24768e-07 -6.60692e-08 1.74428e-06 0.0005 1.46608e-07 
99 1 0.0176869 0.024059 0.0130303 -7.9897e-06 0.000752277 -0.000195295 -3.96855e-07 -1.2685e-07 -1.36605e-06 0.0005 1.46608e-07 
100 1 0.019505 0.0150308 0.0148935 0.0109375 0.011119 0.0128507 5.57844e-06 7.59375e-06 2.59241e-06 0.0005 1.46608e-07 
101 1 0.0174032 0.0234505 0.0143373 -0.00794902 -0.00479531 0.00281495 -1.66865e-07 -2.98022e-06 -3.33363e-07 0.0005 1.46608e-07 
103 1 0.0182679 0.0235096 0.0157594 0.000233494 0.00186777 -0.000647733 3.4326e-06 3.50412e-06 3.89737e-07 0.0005 1.46608e-07 
104 1 0.0167916 0.0208983 0.016604 -0.00109611 0.000807704 0.00301755 1.14093e-07 2.78166e-06 3.24771e-06 0.0005 1.46608e-07 
105 1 0.0200504 0.0140261 0.0130113 0.00422976 0.00182381 -0.00170042 -1.76132e-06 1.07742e-06 1.14212e-06 0.0005 1.46608e-07 
106 1 0.0143069 0.0211932 0.0163153 -0.00277308 -0.00246699 0.000463168 1.97065e-06 1.29775e-07 3.00772e-06 0.0005 1.46608e-07 
107 1 0.0153262 0.0222532 0.0144916 0.00451212 0.00262792 -0.00454391 1.31489e-06 -2.90829e-06 8.54365e-07 0.0005 1.46608e-07 
108 1 0.0223854 0.0239924 0.0145497 -0.000263975 -0.000281849 -0.000349133 -3.43615e-06 -2.13511e-07 -2.40689e-07 0.0005 1.46608e-07 
109 1 0.0165469 0.0156723 0.0156549 0.00118292 0.00039528 -0.00103281 -2.03391e-06 -2.11819e-07 6.87488e-07 0.0005 1.46608e-07 
111 1 0.0188891 0.0230609 0.0164051 0.00123388 -0.000235932 0.00174174 -5.30294e-07 -9.04154e-07 -2.18204e-06 0.0005 1.46608e-07 
112 1 0.0177131 0.0156661 0.0144074 0.0885711 -0.00477016 0.00740259 0 0 -1.43822e-06 0.0005 1.46608e-07 
113 1 0.0237395 0.0228227 0.0158817 -0.000366792 -0.000616051 -0.00108104 1.08175e-06 6.11311e-08 -4.96678e-07 0.0005 1.46608e-07 
114 1 0.0189752 0.0213105 0.0162391 0.00549934 0.00320698 -0.000234513 -2.51297e-07 -6.15968e-07 1.01331e-06 0.0005 1.46608e-07 
116 1 0.0186726 0.0163857 0.0160814 -0.00677904 -0.00157633 0.0150825 -2.0403e-06 2.43625e-06 1.37597e-06 0.0005 1.46608e-07 
119 1 0.0186411 0.0229386 0.0150284 -0.00260063 0.00360146 -0.00313338 1.3172e-06 -3.2939e-07 -4.26233e-07 0.0005 1.46608e-07 
122 1 0.0144604 0.0169083 0.0165667 0.0462474 -0.0543791 0.0869938 0 0 -1.43822e-06 0.0005 1.46608e-07 
123 1 0.0181326 0.0156869 0.0156071 -0.000466512 -0.00257098 -0.00161921 1.12083e-06 1.79675e-06 -5.52242e-07 0.0005 1.46608e-07 
124 1 0.0177772 0.0243621 0.017426 0.000197325 0.000141161 0.000193801 -3.40826e-07 -3.37446e-07 -7.59854e-07 0.0005 1.46608e-07 
126 1 0.0161518 0.0220907 0.015774 0.00255504 0.00242825 0.0016176 5.82814e-06 -3.81292e-06 7.49103e-06 0.0005 1.46608e-07 
128 1 0.016752 0.0203688 0.0157568 -0.000418729 0.00478217 -0.00173241 -1.44557e-07 2.62189e-06 4.01206e-07 0.0005 1.46608e-07 
129 1 0.0189411 0.0244112 0.0137933 6.56295e-05 -0.000763981 0.000569303 -4.53826e-07 8.45718e-07 -1.18622e-06 0.0005 1.46608e-07 
130 1 0.0191747 0.0197139 0.00723591 0.00160263 -0.0160516 -0.00219063 -2.29331e-06 4.25991e-06 -1.53845e-07 0.0005 1.46608e-07 
131 1 0.0190764 0.023544 0.0142647 -0.000691121 -0.00074492 0.00239031 9.21323e-07 -8.37391e-07 -9.10987e-06 0.0005 1.46608e-07 
132 1 0.0219221 0.0228937 0.0136956 0.000257129 0.0035125 -0.00392908 2.13388e-07 -3.51012e-07 7.49271e-07 0.0005 1.46608e-07 
133 1 0.0205859 0.0202867 0.016636 0.00883428 0.014125 -0.000773843 -4.13485e-07 1.0046e-06 -3.84827e-07 0.0005 1.46608e-07 
134 1 0.0256842 0.0215014 0.00810793 -3.35823e-05 -0.0208674 -0.0155921 2.85042e-10 -1.30007e-08 1.09072e-08 0.0005 1.46608e-07 
135 1 0.0228364 0.0160444 0.0147764 0.00364491 0.00898337 0.00609707 1.847e-07 9.21757e-08 -1.32009e-06 0.0005 1.46608e-07 
136 1 0.0260911 0.0197409 0.0172248 -0.000740777 0.00182885 -0.000584821 -1.44334e-08 -2.10954e-08 -5.58526e-09 0.0005 1.46608e-07 
137 1 0.0155618 0.021557 0.0151688 0.00567371 0.00269218 -0.00136996 2.20084e-06 -1.94929e-06 5.74759e-06 0.0005 1.46608e-07 
139 1 0.0205419 0.0179997 0.0167226 -0.0852029 0.00285016 -0.0212261 0 0 -1.43822e-06 0.0005 1.46608e-07 
140 1 0.0276707 0.020834 0.0154412 0.00289353 0.0169023 -0.00535929 3.44167e-08 -1.61324e-07 9.93236e-08 0.0005 1.46608e-07 
141 1 0.0230943 0.0152969 0.0138797 0.00330752 0.00267723 0.00494318 2.2694e-06 -7.41937e-07 1.56965e-06 0.0005 1.46608e-07 
142 1 0.0176866 0.0230372 0.0164221 0.00433272 -0.000769587 0.00142849 -7.69896e-06 -7.09542e-07 -3.34191e-06 0.0005 1.46608e-07 
143 1 0.0209108 0.0147802 0.015167 0.00809464 0.00438351 0.00635803 -2.38428e-06 3.174e-07 2.78671e-06 0.0005 1.46608e-07 
144 1 0.0261753 0.0230282 0.00973143 0.00557147 0.000504465 -0.0040818 1.93953e-05 -1.83418e-06 5.14578e-06 0.0005 1.46608e-07 
145 1 0.0200558 0.0234631 0.0144018 0.000274098 0.00392569 -0.0070648 -2.67508e-07 5.02618e-07 -2.12462e-06 0.0005 1.46608e-07 
146 1 0.0232228 0.0222742 0.0177854 0.0619453 0.0159479 0.00440413 0 0 -1.43822e-06 0.0005 1.46608e-07 
147 1 0.0282367 0.018179 0.015718 0.000964344 0.0237374 0.00514416 -1.20024e-06 3.26037e-06 3.35441e-07 0.0005 1.46608e-07 
151 1 0.0202208 0.0107255 0.0248225 -0.574167 -0.480781 0.941951 0 0 -1.43822e-06 0.0005 1.46608e-07 
152 1 0.0224541 0.0217033 0.0150688 0.0079024 0.0411153 -0.00528625 -5.39774e-05 6.81772e-05 0.000234728 0.0005 1.46608e-07 
153 1 0.0184339 0.0194519 0.016729 0.00705974 0.0122571 -0.00245973 -1.80267e-06 3.31026e-06 5.51562e-06 0.0005 1.46608e-07 
154 1 0.0292446 0.0150489 0.0128454 0.000121278 0.00759858 0.02435 -1.37309e-09 1.69018e-08 7.25775e-10 0.0005 1.46608e-07 
155 1 0.0153864 0.0165668 0.0161709 -0.0140844 -0.027845 -0.0100485 5.96653e-08 -5.80452e-08 6.48966e-08 0.0005 1.46608e-07 
156 1 0.0176676 0.0204238 0.0167 -0.000695428 -0.00205493 -0.00101208 3.17131e-07 2.58413e-07 4.2033e-06 0.0005 1.46608e-07 
157 1 0.0237486 0.0157522 0.0144831 0.00456657 0.0019535 0.00463861 4.37922e-06 4.43122e-06 4.81335e-06 0.0005 1.46608e-07 
158 1 0.120574 -0.00233192 0.00483463 0.37368 -0.0954868 -1.33423 0 0 -1.43822e-06 0.0005 1.46608e-07 
159 1 0.0140943 0.015419 0.01529 0.00172595 -0.00155499 -0.0018409 1.38034e-07 -9.28569e-08 -3.85203e-07 0.0005 1.46608e-07 
160 1 0.0220091 0.0232766 0.0128804 0.000669199 0.000425477 -0.000411919 7.4144e-08 -1.33625e-07 6.48815e-08 0.0005 1.46608e-07 
161 1 0.0135876 0.0203534 0.0175664 -0.00399275 -0.0079067 -0.00304664 0 0 -1.43822e-06 0.0005 1.46608e-07 
162 1 0.0201888 0.0206419 0.0225339 -0.0912354 -0.00600946 -0.0292809 0 0 -1.43822e-06 0.0005 1.46608e-07 
163 1 0.0169148 0.0169954 0.0163717 0.00524853 -0.00796248 -0.00559428 -4.12333e-07 -5.25807e-07 -3.66097e-07 0.0005 1.46608e-07 
164 1 0.028684 0.0165539 0.0149448 0.000306522 0.0199962 0.0141712 -2.77151e-09 1.45276e-08 -6.30615e-09 0.0005 1.46608e-07 
165 1 0.0185137 0.0150805 0.0135137 0.00548819 0.00767536 0.0141104 1.43331e-06 7.37456e-07 -1.08707e-06 0.0005 1.46608e-07 
166 1 0.017986 0.0213181 0.0163854 0.00531917 -0.0027829 0.00890862 2.93251e-07 -6.14242e-07 -1.26436e-06 0.0005 1.46608e-07 
167 1 0.0181887 0.0179423 0.016113 0.00678544 -0.0143479 0.00428244 3.84472e-07 -2.92905e-06 7.50043e-07 0.0005 1.46608e-07 
168 1 0.0157896 0.0206746 0.0156739 0.0141192 -0.0135485 0.0235194 0 0 -1.43822e-06 0.0005 1.46608e-07 
169 1 0.0151937 0.0226711 0.0173214 -1.24685e-05 -0.00148721 -0.00226786 7.30581e-07 -4.72993e-07 -3.73031e-07 0.0005 1.46608e-07 
170 1 0.024217 0.0156487 0.00880789 0.00132545 -0.00809344 0.0109793 1.45397e-10 2.68513e-08 -1.76571e-08 0.0005 1.46608e-07 
171 1 0.0239911 0.0151261 0.00974443 0.000307682 -0.0109464 0.0231594 -4.94216e-11 1.60292e-09 -1.04971e-07 0.0005 1.46608e-07 
172 1 0.017896 0.0221578 0.0158495 0.00740368 0.00312685 0.0157812 -2.11177e-06 1.11523e-06 -1.15018e-06 0.0005 1.46608e-07 
173 1 0.0178728 0.0142562 0.0148586 -0.0121345 0.0243982 -0.0222419 1.18032e-05 -1.38471e-08 -1.04413e-05 0.0005 1.46608e-07 
175 1 0.0430669 0.0177959 0.00604066 -2.89704e-15 8.13291e-15 4.49423e-14 -3.68115e-19 -1.7703e-19 1.01644e-20 0.0005 1.46608e-07 
176 1 0.0174044 0.0142784 0.0139822 0.0213896 -0.151212 -0.153391 5.51308e-07 -6.30202e-05 -2.94809e-05 0.0005 1.46608e-07 
177 1 0.0159642 0.0231518 0.0133716 0.0055723 0.00325522 -0.00244232 3.60495e-06 -4.23793e-08 -5.06676e-06 0.0005 1.46608e-07 
178 1 0.0202908 0.014673 0.0143894 0.00379745 0.0021132 0.00669692 5.50972e-07 8.01232e-07 2.11145e-07 0.0005 1.46608e-07 
179 1 0.0211581 0.0157591 0.0156048 0.00291874 0.00744187 0.00563142 -3.16209e-07 2.10684e-07 1.61851e-07 0.0005 1.46608e-07 
180 1 0.0133995 0.0215714 0.016133 -0.00309295 -0.00520606 0.00214067 5.91374e-06 1.69719e-06 -1.50355e-06 0.0005 1.46608e-07 
181 1 0.0230107 0.0195525 0.0159287 -2.29685e-06 0.0240691 -0.00245879 -3.33355e-09 -2.2648e-09 -1.85996e-08 0.0005 1.46608e-07 
182 1 0.0153929 0.0231215 0.0145876 0.00265812 0.00209567 -0.00121992 4.17291e-07 1.2448e-06 -2.06381e-06 0.0005 1.46608e-07 
183 1 0.0210336 0.0213903 0.0162625 0.0144235 -0.0185714 0.0117059 -3.1652e-07 1.16548e-06 -5.56394e-07 0.0005 1.46608e-07 
184 1 0.0224512 0.0175205 0.0159 0.000868994 0.0241978 0.00587223 -1.20507e-08 1.26249e-07 -1.07187e-07 0.0005 1.46608e-07 
185 1 0.0182973 0.0238537 0.0148179 -0.00335094 0.00525638 0.00357397 -2.12279e-07 -1.98512e-06 3.49101e-06 0.0005 1.46608e-07 
186 1 0.0159406 0.0234048 0.0171843 1.76613e-05 0.00132127 0.00248938 -6.29558e-08 2.82225e-08 -1.51386e-06 0.0005 1.46608e-07 
187 1 0.021631 0.0149417 0.0159338 0.00522098 0.00261568 -0.00942779 -3.89269e-08 6.83246e-08 -5.21575e-07 0.0005 1.46608e-07 
189 1 0.0280459 0.0191412 0.0158407 0.00152452 0.0206201 -0.000521292 -3.18387e-07 1.06418e-07 1.70136e-07 0.0005 1.46608e-07 
190 1 0.0253265 0.0216549 0.0167343 0.000104081 0.000787211 0.000757194 2.79723e-08 -2.77688e-08 5.62614e-08 0.0005 1.46608e-07 
191 1 0.0213273 0.0239776 0.0129082 0.000686509 0.00170001 -0.00168138 -3.50781e-08 -1.30342e-07 -1.4494e-07 0.0005 1.46608e-07 
192 1 0.0203279 0.0136964 0.0139039 0.000988297 0.000620843 -0.000257103 -5.09099e-07 3.54854e-08 4.19284e-07 0.0005 1.46608e-07 
193 1 0.0161977 0.0187226 0.0161625 0.011897 -0.0551704 0.0862435 0 0 -1.43822e-06 0.0005 1.46608e-07 
194 1 0.0236242 0.0147412 0.0111455 0.000152796 -0.00314403 0.0253586 -1.6951e-10 1.39766e-08 7.15038e-09 0.0005 1.46608e-07 
195 1 0.017277 0.023635 0.015709 -0.00142362 0.00150894 0.00284947 4.30808e-07 2.11876e-07 3.65245e-07 0.0005 1.46608e-07 
196 1 0.0180966 0.0142461 0.0131535 0.00414801 0.0094974 0.019026 -1.76272e-05 1.43763e-05 3.09083e-05 0.0005 1.46608e-07 
197 1 0.0196223 0.0228746 0.0157002 0.00363242 0.00427887 -0.00345323 -2.00869e-06 1.96227e-06 -1.81785e-06 0.0005 1.46608e-07 
198 1 0.0242811 0.0223542 0.0154829 -3.22545e-05 -0.00120331 -0.000822344 3.85235e-07 6.18724e-07 -5.78529e-07 0.0005 1.46608e-07 
199 1 0.020891 0.0238994 0.0147043 -0.000224055 0.00117004 -0.000999104 3.07719e-08 3.57741e-07 -2.60787e-07 0.0005 1.46608e-07 
200 1 0.0224707 0.0194216 0.0167668 -0.00308786 0.0550957 -0.0519862 0 0 -1.43822e-06 0.0005 1.46608e-07 
202 1 0.0238013 0.0201793 0.0158036 1.29818e-09 0.0233024 -0.00629579 -5.91601e-12 -5.09949e-09 -1.81808e-08 0.0005 1.46608e-07 
203 1 0.0165818 0.0233418 0.0126411 0.00454669 0.00267225 -0.00288337 5.31001e-07 2.06289e-08 -6.36651e-06 0.0005 1.46608e-07 
204 1 0.0174134 0.0174885 0.0156589 0.0049404 -0.0019397 -0.00140346 1.22415e-07 7.5505e-07 5.10941e-07 0.0005 1.46608e-07 
205 1 0.0151941 0.0236374 0.015225 0.000317013 0.000233856 -0.00024373 3.45765e-07 9.24896e-07 -1.09843e-06 0.0005 1.46608e-07 
206 1 0.0188802 0.0222048 0.0156793 0.00179928 0.00451146 -0.00342691 1.5588e-06 2.02637e-07 -1.2934e-06 0.0005 1.46608e-07 
207 1 0.0174422 0.0150954 0.0151901 -0.0196808 0.0177197 0.00234277 -3.379e-06 9.29232e-06 -7.27387e-06 0.0005 1.46608e-07 
208 1 0.0260238 0.0226032 0.0091479 0.00462929 -0.00455639 -0.00410037 -7.06042e-06 -1.02693e-05 -5.45568e-06 0.0005 1.46608e-07 
209 1 0.0265212 0.0216211 0.00811245 9.0344e-05 -0.0198751 -0.0155827 -8.31552e-10 -1.20095e-08 7.87998e-09 0.0005 1.46608e-07 
211 1 0.0148301 0.021887 0.0168166 -0.00861557 0.00486345 -0.0109139 0 0 -1.43822e-06 0.0005 1.46608e-07 
212 1 0.0176219 0.0233763 0.0173612 0.00437811 -0.000658754 -0.000678718 -1.04089e-08 2.99601e-08 -1.42514e-06 0.0005 1.46608e-07 
213 1 0.0230982 0.0219207 0.0160113 -0.0269692 0.0239765 -0.0248602 0 0 -1.43822e-06 0.0005 1.46608e-07 
214 1 0.0162745 0.0217427 0.0168355 -0.000983868 0.000679661 -0.00379911 0 0 -1.43822e-06 0.0005 1.46608e-07 
215 1 0.0192469 0.0188596 0.0167546 0.0153958 0.00131249 0.00182886 -3.02256e-07 5.56387e-07 -2.32004e-07 0.0005 1.46608e-07 
217 1 0.0153852 0.0196829 0.0167568 0.00137609 -0.00175071 0.00210819 -7.97135e-08 1.31001e-06 3.29616e-07 0.0005 1.46608e-07 
218 1 0.0138692 0.0220119 0.0185189 -0.00196199 -0.00403059 -0.0033245 0 0 -1.43822e-06 0.0005 1.46608e-07 
219 1 0.0244053 0.0174258 0.0156339 0.00105578 0.0208988 0.00810487 -2.8809e-09 1.71757e-08 -1.00902e-08 0.0005 1.46608e-07 
220 1 0.0218453 0.0150508 0.0149163 0.00726479 0.00284244 0.00344026 0 0 -1.43822e-06 0.0005 1.46608e-07 
221 1 0.0228699 0.0205334 0.0156937 5.23222e-07 0.0229545 -0.00794581 5.67344e-11 1.04232e-08 -2.50092e-08 0.0005 1.46608e-07 
222 1 0.0199847 0.0210458 0.0163836 0.00191032 0.00557961 -0.0045668 5.12821e-07 -1.59558e-06 2.67653e-07 0.0005 1.46608e-07 
223 1 0.0230638 0.014704 0.0146843 0.00445459 0.0023683 0.00417113 -1.37076e-06 1.62771e-08 -3.54381e-07 0.0005 1.46608e-07 
224 1 0.0187783 0.01765 0.00738856 0.00115775 -0.020998 0.00774159 -1.14468e-08 -2.04562e-08 2.72857e-08 0.0005 1.46608e-07 
225 1 0.0168426 0.0160269 0.0147654 0.0239612 -0.0397135 -0.0116509 0 0 -1.43822e-06 0.0005 1.46608e-07 
226 1 0.0234297 0.0148174 0.0122385 0.00030918 0.00432435 0.024015 -2.52027e-09 1.46474e-08 6.80499e-09 0.0005 1.46608e-07 
228 1 0.0166334 0.0168009 0.0153767 0.0119227 -0.0264055 0.0241822 1.81813e-06 1.24389e-06 -1.46502e-06 0.0005 1.46608e-07 
230 1 0.0191741 0.0156866 0.0155719 0.00399808 0.00518072 0.0145303 -7.47809e-07 -3.17141e-07 -3.47536e-06 0.0005 1.46608e-07 
231 1 0.0182083 0.0237512 0.0138274 -0.00113564 -0.0039209 0.00268181 6.33953e-07 3.08192e-06 -6.9433e-06 0.0005 1.46608e-07 
232 1 0.01986 0.0168109 0.0162629 -0.00456949 -0.00259489 -0.00311009 5.18024e-08 -3.9496e-08 -3.60042e-07 0.0005 1.46608e-07 
233 1 0.0195423 0.0143134 0.0138236 0.00340513 0.00515863 -0.00348229 4.13548e-06 -1.60912e-06 2.86303e-06 0.0005 1.46608e-07 
234 1 0.0244387 0.0157106 0.0157056 0.00437697 0.00496631 0.00204188 1.97331e-06 2.46227e-06 8.13418e-07 0.0005 1.46608e-07 
235 1 0.0203761 0.024084 0.012614 -0.00208152 0.00124508 -0.00218816 5.80105e-10 2.61232e-08 -8.44958e-08 0.0005 1.46608e-07 
236 1 0.0255919 0.0208384 0.0169544 0.0005119 0.00343183 0.000747408 -4.93679e-09 1.02642e-09 1.05249e-08 0.0005 1.46608e-07 
237 1 0.0159894 0.0196899 0.015934 0.015231 -0.0496254 0.0310317 0 0 -1.43822e-06 0.0005 1.46608e-07 
239 1 0.0268888 0.0231464 0.0129015 0.00111353 0.0103121 -0.020161 9.10036e-09 -4.39239e-08 2.68972e-08 0.0005 1.46608e-07 
241 1 0.0176542 0.022878 0.0151758 -0.00240507 0.00279051 0.000567509 -3.02945e-06 -2.52509e-06 -2.9393e-06 0.0005 1.46608e-07 
242 1 0.0212845 0.017811 0.0180635 -0.0878695 -0.0420581 0.0977865 0 0 -1.43822e-06 0.0005 1.46608e-07 
244 1 0.0168728 0.0240498 0.0171331 8.8111e-05 -0.000170553 7.70875e-05 -5.11845e-09 2.01222e-08 -1.43498e-06 0.0005 1.46608e-07 
245 1 0.0195928 0.0240424 0.0131789 -0.000361042 0.000790379 -0.000417378 -1.24326e-08 1.87244e-07 -1.36133e-07 0.0005 1.46608e-07 
246 1 0.0176079 0.0165508 0.0151731 0.000467149 0.00950823 0.00706875 -2.60942e-07 -1.70873e-08 3.10529e-07 0.0005 1.46608e-07 
247 1 0.019671 0.022801 0.0170222 2.73856e-05 0.002874 0.00635718 0 0 -1.43822e-06 0.0005 1.46608e-07 
249 1 0.0161595 0.0237477 0.0141732 0.00294097 0.00667856 0.0100064 -1.3828e-07 9.89955e-08 -1.6016e-06 0.0005 1.46608e-07 
253 1 0.0272286 0.0223399 0.0141429 1.76106e-05 0.016255 -0.0195366 5.35558e-10 -8.0431e-09 -1.59843e-08 0.0005 1.46608e-07 
254 1 0.0204133 0.0243578 0.0136555 0.00341371 -0.00284271 -0.00437559 -1.82299e-07 -3.03601e-08 -6.69284e-07 0.0005 1.46608e-07 
255 1 0.0190033 0.0141986 0.0146591 0.0199313 0.00718628 0.00747576 -5.93311e-06 -1.21742e-06 2.90963e-07 0.0005 1.46608e-07 
256 1 0.0144538 0.0221233 0.017713 -0.000263107 -0.002176 -0.00111531 0 0 -1.43822e-06 0.0005 1.46608e-07 
258 1 0.0200726 0.0194253 0.0167343 0.00549276 0.0148803 -0.00103282 -2.81403e-07 -6.91923e-06 -4.25642e-06 0.0005 1.46608e-07 
259 1 0.0173399 0.0148026 0.0128471 -0.000751572 0.00958632 0.0283611 -3.99507e-06 -4.88216e-06 4.05855e-06 0.0005 1.46608e-07 
260 1 0.0223993 0.0158595 0.0156863 0.000255211 0.00124377 0.00296544 0 0 -1.43822e-06 0.0005 1.46608e-07 
261 1 0.0164184 0.0177507 0.0158231 0.0252963 -0.0908135 0.0243537 0 0 -1.43822e-06 0.0005 1.46608e-07 
262 1 0.0171947 0.0223982 0.0144286 0.0041639 -0.00340741 -0.00218712 -4.61241e-06 -1.15877e-06 -3.82282e-06 0.0005 1.46608e-07 
263 1 0.0209295 0.0234628 0.0120683 0.00277855 0.0027005 -0.00762058 1.1657e-07 2.0095e-06 5.34727e-07 0.0005 1.46608e-07 
264 1 0.0171956 0.0184335 0.0159038 -3.77699e-05 -0.00212534 -0.00609751 0 0 -1.43822e-06 0.0005 1.46608e-07 
265 1 0.0179597 0.0221939 0.0168847 -0.000718483 -0.00185105 -0.00144841 5.18069e-06 -3.51415e-06 2.90605e-06 0.0005 1.46608e-07 
269 1 0.0165547 0.0234527 0.0163965 -0.00423818 0.0056222 -0.00081863 0 0 -1.43822e-06 0.0005 1.46608e-07 
270 1 0.0170251 0.0217404 0.0161169 0.002715 -0.00307238 -0.00256774 0 0 -1.43822e-06 0.0005 1.46608e-07 
271 1 0.0182747 0.0140913 0.0158407 -0.00985222 -0.000191461 -0.00547822 4.36346e-08 2.14918e-07 -1.26039e-06 0.0005 1.46608e-07 
272 1 0.0245721 0.016973 0.00768027 0.00174676 -0.0153186 0.00662311 -1.46353e-08 4.73963e-08 1.75243e-08 0.0005 1.46608e-07 
273 1 0.0143854 0.0196529 0.0167435 0.00116395 -0.00835761 0.00345677 -4.94401e-08 9.77893e-07 -1.19002e-07 0.0005 1.46608e-07 
275 1 0.0180678 0.0189219 0.0159537 0.00835356 -0.0126916 0.0065814 -2.12038e-06 5.78184e-06 -3.40117e-06 0.0005 1.46608e-07 
277 1 0.0254824 0.0200743 0.0165804 -0.00030497 0.0106189 -7.10189e-05 -5.59243e-09 -1.97188e-08 6.08607e-08 0.0005 1.46608e-07 
278 1 0.0212037 0.0233907 0.0111183 1.40324e-05 0.000635061 -0.00599045 -3.41246e-08 2.73389e-07 1.19075e-06 0.0005 1.46608e-07 
280 1 0.0202513 0.0208871 0.00763634 -0.000256392 -0.0220984 -0.0098639 4.37997e-10 -1.33337e-08 7.32122e-09 0.0005 1.46608e-07 
281 1 0.0176373 0.0208293 0.0155828 0.00960139 -0.0112115 0.00704711 0 0 -1.43822e-06 0.0005 1.46608e-07 
282 1 0.0211647 0.0226371 0.00912204 0.000654375 -0.00319176 -0.00583989 -1.43872e-08 -8.93485e-08 -2.41185e-07 0.0005 1.46608e-07 
283 1 0.0171288 0.0152018 0.0137388 0.0359227 0.0116959 0.0672203 7.21514e-05 -2.54781e-05 7.70423e-05 0.0005 1.46608e-07 
284 1 0.0159204 0.0230479 0.0156015 -4.31836e-05 0.00139103 0.00509379 -4.50851e-06 -8.40625e-06 1.7167e-06 0.0005 1.46608e-07 
285 1 0.0241543 0.0164652 0.0151138 0.00127092 0.00898144 0.00694497 -8.63542e-08 -1.8213e-07 -6.76223e-08 0.0005 1.46608e-07 
286 1 0.0231136 0.0160026 0.0163727 0.0237389 -0.0382788 -0.00802419 0 0 -1.43822e-06 0.0005 1.46608e-07 
287 1 0.0198058 0.0219192 0.0159308 0.00410134 0.00378103 -0.00786066 1.99557e-06 -3.64762e-06 2.05479e-06 0.0005 1.46608e-07 
289 1 0.0164182 0.0142684 0.0137799 0.0054497 -0.000751432 -0.00580179 7.91772e-08 -5.12544e-08 -1.46439e-08 0.0005 1.46608e-07 
290 1 0.0155238 0.0214585 0.0162376 -0.00267559 -0.00252029 0.00611054 0 0 -1.43822e-06 0.0005 1.46608e-07 
292 1 0.0216219 0.0242638 0.0141357 -0.00108459 3.56502e-05 -1.50032e-05 1.1417e-07 5.26862e-07 -7.21545e-07 0.0005 1.46608e-07 
293 1 0.0229516 0.0212012 0.0175304 -0.0806607 -0.0204097 -0.107721 0 0 -1.43822e-06 0.0005 1.46608e-07 
294 1 0.0188894 0.0155807 0.0142938 0.00582259 0.0110237 0.0129191 -1.72219e-07 4.15907e-08 -1.56835e-06 0.0005 1.46608e-07 
295 1 0.0174358 0.0194233 0.0168212 0.00292526 -0.00483667 -0.00120848 0 0 -1.43822e-06 0.0005 1.46608e-07 
296 1 0.0153862 0.0233739 0.0180191 0.000464367 0.00362277 0.00446296 3.55124e-07 -5.59879e-07 -1.40096e-06 0.0005 1.46608e-07 
297 1 0.0183491 0.0171504 0.0155239 0.00309469 -0.00927409 -0.00161072 4.32134e-08 -1.75728e-06 -1.3347e-06 0.0005 1.46608e-07 