LIGGGHTS (Version LIGGGHTS-PUBLIC 3.8.0, compiled 2026-05-19-03:04:00 by root, git commit 3d5c00f20519e6bb6eb6756f51f1ad36564e649d)
##################################Header for General commands#######################################################

atom_style	granular		#Simulation of particles

boundary	f f f			#fixed boundaries -> particles will be deleted if leaving the simulation box

units		si

communicate	multi vel yes		#default

newton		off			#default


###################################System variables##################################################################

#Definition of boundaries

variable xmin equal -0.02
variable xmax equal 0.43

variable ymin equal -0.02
variable ymax equal 0.06

variable zmin equal -0.02
variable zmax equal 0.07

#Definition of the timestep

variable dt equal 1e-6


###################################Specific variables for current simulation#########################################

variable natoms equal 2 				#1 -> particle #2 ->pipe and screw


####variable for material properties####

####Young Modulus####
variable	youngmodulus1	equal 	7e6
variable	youngmodulus2	equal 	2e8

####Poission ratio####
variable 	poission1	equal	0.30
variable 	poission2	equal	0.29


####variable for contact properties####

####coefficient of restitution####
variable	CoR11	equal	0.6
variable	CoR12	equal	0.8
variable	CoR21	equal	0.8
variable	CoR22	equal	0.45

####sliding friction coefficient####
variable	sf11	equal	0.65	#Particle-particle sliding friction coefficient
variable	sf12	equal	0.5
variable	sf21	equal	0.5
variable	sf22	equal	0.0

####rolling friction coefficient####
variable	rf11	equal	0.75	#Particle-particle rolling friction coefficient
variable	rf12	equal	0.4
variable	rf21	equal	0.4
variable	rf22	equal	0.0


####variable for particle####

#Number of particle radius
variable	nradii	equal	3

variable	radius1	equal	0.0005	#m
variable	radius2	equal	0.0005	#m
variable	radius3	equal	0.0005	#m

variable	frac1	equal	0.3945
variable	frac2	equal	0.4059
variable	frac3	equal	0.1996

variable	density	equal	1000		#kg/m³


####filling parameters####

variable	filltime	equal	0.2		#s, prueba rápida: alimentar 2 s

variable	dischargetime	equal	5		#s, tiempo para que puedan salir partículas

variable	fillmass	equal	0.0001 		#kg, 2 g de material

variable	fillmassrate	equal	${fillmass}/${filltime}	#kg/s
variable	fillmassrate	equal	0.0001/${filltime}	
variable	fillmassrate	equal	0.0001/0.2	

variable	fillsteps	equal	${filltime}/${dt}
variable	fillsteps	equal	0.2/${dt}
variable	fillsteps	equal	0.2/1e-06

variable	dischargesteps	equal	${dischargetime}/${dt}
variable	dischargesteps	equal	5/${dt}
variable	dischargesteps	equal	5/1e-06


####screw velocities####

variable	screwPeriod	equal	0.5		#s, prueba rápida: 2 vueltas/s


###################################Definition of simulationbox#######################################################

region		reg block ${xmin} ${xmax} ${ymin} ${ymax} ${zmin} ${zmax} units box
region		reg block -0.02 ${xmax} ${ymin} ${ymax} ${zmin} ${zmax} units box
region		reg block -0.02 0.43 ${ymin} ${ymax} ${zmin} ${zmax} units box
region		reg block -0.02 0.43 -0.02 ${ymax} ${zmin} ${zmax} units box
region		reg block -0.02 0.43 -0.02 0.06 ${zmin} ${zmax} units box
region		reg block -0.02 0.43 -0.02 0.06 -0.02 ${zmax} units box
region		reg block -0.02 0.43 -0.02 0.06 -0.02 0.07 units box

create_box	2 reg
Created orthogonal box = (-0.02 -0.02 -0.02) to (0.43 0.06 0.07)
  6 by 1 by 1 MPI processor grid

neighbor	0.005 bin

neigh_modify	delay 0


#################################Definition of the contact models####################################################

pair_style gran model hertz tangential history rolling_friction epsd2
WARNING: 
	The contact model you specified is not located in any whitelist.
	Because of this the model will be run in an unoptimized version (increasing runtime by up to 20%).
	In order to optimize this model you have the following options:
		(i)  Run the genAutoExamplesWhitelist.sh script in your LIGGGHTS(R) source folder to automatically parse the input script
		(ii) Add the model combination by hand to your style_contact_model_user.whitelist that can be found in your LIGGGHTS(R) source folder
		(iii) Use the ENABLE_MODEL_* flag when building with cmake.
	If you perform one of the steps above LIGGGHTS(R) needs to be recompiled to generate the optimized code.

 (../contact_models.h:365)

pair_coeff	* *

timestep ${dt}
timestep 1e-06

thermo 1000

fix		integrator all nve/sphere

fix		gravi all gravity 9.81 vector 0.0 0.0 -1.0


###################################Definition of Material properties#################################################

fix 		m1 all property/global youngsModulus peratomtype ${youngmodulus1} ${youngmodulus2}
fix 		m1 all property/global youngsModulus peratomtype 7000000 ${youngmodulus2}
fix 		m1 all property/global youngsModulus peratomtype 7000000 200000000

fix 		m2 all property/global poissonsRatio peratomtype ${poission1} ${poission2}
fix 		m2 all property/global poissonsRatio peratomtype 0.3 ${poission2}
fix 		m2 all property/global poissonsRatio peratomtype 0.3 0.29

fix 		m3 all property/global coefficientRestitution peratomtypepair ${natoms} ${CoR11} ${CoR12} ${CoR21} ${CoR22}
fix 		m3 all property/global coefficientRestitution peratomtypepair 2 ${CoR11} ${CoR12} ${CoR21} ${CoR22}
fix 		m3 all property/global coefficientRestitution peratomtypepair 2 0.6 ${CoR12} ${CoR21} ${CoR22}
fix 		m3 all property/global coefficientRestitution peratomtypepair 2 0.6 0.8 ${CoR21} ${CoR22}
fix 		m3 all property/global coefficientRestitution peratomtypepair 2 0.6 0.8 0.8 ${CoR22}
fix 		m3 all property/global coefficientRestitution peratomtypepair 2 0.6 0.8 0.8 0.45

fix 		m4 all property/global coefficientFriction peratomtypepair ${natoms} ${sf11} ${sf12} ${sf21} ${sf22}
fix 		m4 all property/global coefficientFriction peratomtypepair 2 ${sf11} ${sf12} ${sf21} ${sf22}
fix 		m4 all property/global coefficientFriction peratomtypepair 2 0.65 ${sf12} ${sf21} ${sf22}
fix 		m4 all property/global coefficientFriction peratomtypepair 2 0.65 0.5 ${sf21} ${sf22}
fix 		m4 all property/global coefficientFriction peratomtypepair 2 0.65 0.5 0.5 ${sf22}
fix 		m4 all property/global coefficientFriction peratomtypepair 2 0.65 0.5 0.5 0

fix 		m5 all property/global coefficientRollingFriction peratomtypepair ${natoms} ${rf11} ${rf12} ${rf21} ${rf22}
fix 		m5 all property/global coefficientRollingFriction peratomtypepair 2 ${rf11} ${rf12} ${rf21} ${rf22}
fix 		m5 all property/global coefficientRollingFriction peratomtypepair 2 0.75 ${rf12} ${rf21} ${rf22}
fix 		m5 all property/global coefficientRollingFriction peratomtypepair 2 0.75 0.4 ${rf21} ${rf22}
fix 		m5 all property/global coefficientRollingFriction peratomtypepair 2 0.75 0.4 0.4 ${rf22}
fix 		m5 all property/global coefficientRollingFriction peratomtypepair 2 0.75 0.4 0.4 0


###################################Generation and Loading of the Geometry .stl#######################################

fix case all mesh/surface file case_remesh.stl type 2 heal auto_remove_duplicates scale 1.0 curvature 1e-5 curvature_tolerant yes

fix screw all mesh/surface file screw_simplified.stl type 2 scale 1.0 curvature 1e-5 curvature_tolerant yes

fix 		walls 		all wall/gran model hertz tangential history rolling_friction epsd2 mesh n_meshes 2 meshes case screw
WARNING: 
	The contact model you specified is not located in any whitelist.
	Because of this the model will be run in an unoptimized version (increasing runtime by up to 20%).
	In order to optimize this model you have the following options:
		(i)  Run the genAutoExamplesWhitelist.sh script in your LIGGGHTS(R) source folder to automatically parse the input script
		(ii) Add the model combination by hand to your style_contact_model_user.whitelist that can be found in your LIGGGHTS(R) source folder
		(iii) Use the ENABLE_MODEL_* flag when building with cmake.
	If you perform one of the steps above LIGGGHTS(R) needs to be recompiled to generate the optimized code.

 (../contact_models.h:365)

fix		Movescrew	all move/mesh mesh screw rotate origin 0.2024435 0.019051 0.011497 axis -1. 0. 0. period ${screwPeriod}
fix		Movescrew	all move/mesh mesh screw rotate origin 0.2024435 0.019051 0.011497 axis -1. 0. 0. period 0.5

fix feed all mesh/surface file feed.stl type 2 scale 1.0 curvature 1e-5 curvature_tolerant yes

fix outlet all mesh/surface file outlet_1.stl type 2 scale 1.0 curvature 1e-5 curvature_tolerant yes


###################################Generation and Insertion of the particles#########################################

fix pts1 all particletemplate/sphere 10487 atom_type 1 density constant ${density} radius constant ${radius1} volume_limit 1e-18
fix pts1 all particletemplate/sphere 10487 atom_type 1 density constant 1000 radius constant ${radius1} volume_limit 1e-18
fix pts1 all particletemplate/sphere 10487 atom_type 1 density constant 1000 radius constant 0.0005 volume_limit 1e-18

fix pts2 all particletemplate/sphere 11887 atom_type 1 density constant ${density} radius constant ${radius2} volume_limit 1e-18
fix pts2 all particletemplate/sphere 11887 atom_type 1 density constant 1000 radius constant ${radius2} volume_limit 1e-18
fix pts2 all particletemplate/sphere 11887 atom_type 1 density constant 1000 radius constant 0.0005 volume_limit 1e-18

fix pts3 all particletemplate/sphere 16561 atom_type 1 density constant ${density} radius constant ${radius3} volume_limit 1e-18
fix pts3 all particletemplate/sphere 16561 atom_type 1 density constant 1000 radius constant ${radius3} volume_limit 1e-18
fix pts3 all particletemplate/sphere 16561 atom_type 1 density constant 1000 radius constant 0.0005 volume_limit 1e-18

fix 		pdd1 all particledistribution/discrete 32452867 ${nradii} pts1 ${frac1} pts2 ${frac2} pts3 ${frac3}
fix 		pdd1 all particledistribution/discrete 32452867 3 pts1 ${frac1} pts2 ${frac2} pts3 ${frac3}
fix 		pdd1 all particledistribution/discrete 32452867 3 pts1 0.3945 pts2 ${frac2} pts3 ${frac3}
fix 		pdd1 all particledistribution/discrete 32452867 3 pts1 0.3945 pts2 0.4059 pts3 ${frac3}
fix 		pdd1 all particledistribution/discrete 32452867 3 pts1 0.3945 pts2 0.4059 pts3 0.1996

fix		ins_mesh all mesh/surface/planar file feed.stl type 1 scale 1.0

fix 		ins all insert/stream seed 15485863 distributiontemplate pdd1         	mass ${fillmass} massrate ${fillmassrate} overlapcheck yes all_in yes vel constant 0 0 -0.10         	insertion_face ins_mesh extrude_length 0.015
fix 		ins all insert/stream seed 15485863 distributiontemplate pdd1         	mass 0.0001 massrate ${fillmassrate} overlapcheck yes all_in yes vel constant 0 0 -0.10         	insertion_face ins_mesh extrude_length 0.015
fix 		ins all insert/stream seed 15485863 distributiontemplate pdd1         	mass 0.0001 massrate 0.0005 overlapcheck yes all_in yes vel constant 0 0 -0.10         	insertion_face ins_mesh extrude_length 0.015


################################### Particle Residence Time Track#########################################

fix 	rt_outlet	all massflow/mesh mesh outlet vec_side 0 0 -1 file rt_outlet.txt writeTime

fix 	rt_inlet	all massflow/mesh mesh feed vec_side 0 0 -1 file rt_inlet.txt writeTime


###################################Outlet mass flow track#########################################

fix	mfout	all massflow/mesh mesh outlet vec_side 0 0 -1

fix	mfin	all massflow/mesh mesh feed vec_side 0 0 -1

variable 	time equal step*dt

variable 	in_mass_flow equal	f_mfin[3]

variable 	out_mass_flow equal	f_mfout[3]

fix mass_flow_rate all print 5000 "${time},${in_mass_flow},${out_mass_flow}" screen no title "t,in_mass_flow,out_mass_flow" file massflow.csv


###################################Dumping of the data for post-processing to visualize############################

#fix ts_check all check/timestep/gran 1000 0.1 0.1

shell 	mkdir -p post

variable dumptime equal 0.2		#guarda cada 0.05 s

variable dumpstep equal ${dumptime}/${dt}
variable dumpstep equal 0.2/${dt}
variable dumpstep equal 0.2/1e-06

dump	dmpparticle all custom ${dumpstep} post/particles_*.liggghts id type x y z vx vy vz fx fy fz radius mass
dump	dmpparticle all custom 200000 post/particles_*.liggghts id type x y z vx vy vz fx fy fz radius mass

dump_modify	dmpparticle sort id

dump	dmpscrew	all	mesh/stl ${dumpstep} post/screw_*.stl screw
dump	dmpscrew	all	mesh/stl 200000 post/screw_*.stl screw


####################################RUN the simulation filling and discharge###########################################################

run	${fillsteps}
run	200000
Setting up run at Thu May 28 20:22:54 2026

WARNING: Fix mesh: Mesh contains highly skewed element, moving mesh (if used) will not parallelize well (../surface_mesh_I.h:657)
WARNING: Fix mesh: Mesh contains highly skewed element, moving mesh (if used) will not parallelize well (../surface_mesh_I.h:657)
INFO: Particle insertion ins: 143.239449 particles every 150000 steps - particle rate 954.929659, (mass rate 5.000000e-04)
      190 particles (mass 9.948377e-05) within 150000 steps
Memory usage per processor = 12.1921 Mbytes
    Step    Atoms         KinEng            CPU 
       0        0              0              0 
INFO: Particle insertion ins: inserted 143 particle templates (mass 7.487462e-05) at step 1
 - a total of 143 particle templates (mass 7.487462e-05) inserted so far.
    1000      143  3.7437312e-07      3.2432065 
    2000      143  3.7437312e-07      6.4959859 
    3000      143  3.7437312e-07      9.9044131 
    4000      143  3.7437312e-07      13.181368 
    5000      143  3.7437312e-07      16.770522 
    6000      143  3.7473488e-07      20.086067 
    7000      143  3.7537709e-07      23.300694 
    8000      143  3.7700589e-07      26.556307 
    9000      143  3.7969169e-07      29.734529 
   10000      143  3.8358892e-07      32.943158 
   11000      143  3.8856074e-07      36.256763 
   12000      143  3.9505271e-07      39.366625 
   13000      143  4.0249702e-07      42.436371 
   14000      143  4.1064071e-07      45.860393 
   15000      143  4.1945263e-07      49.142875 
   16000      143  4.2925478e-07      52.325942 
   17000      143  4.3640596e-07      55.801226 
   18000      143  4.4728587e-07      59.294873 
   19000      143  4.5141374e-07       63.19471 
   20000      143  4.5797315e-07      67.340236 
   21000      143   4.710529e-07      71.410908 
   22000      143  4.8026787e-07      75.736536 
   23000      143  4.9037919e-07      80.020558 
   24000      143  4.9400883e-07      84.213326 
   25000      143  5.0293461e-07      87.999024 
   26000      143  4.9065312e-07      91.745457 
   27000      143  5.0351229e-07      95.589303 
   28000      143  2.2803792e-06      99.322212 
   29000      143  2.0830468e-06      103.14045 
   30000      143    1.26319e-06      107.34101 
   31000      143   9.752111e-07      111.54681 
   32000      143  8.3095124e-07      115.97217 
   33000      143  7.3902009e-07      120.28313 
   34000      143  7.4185598e-07      124.51024 
   35000      143    7.43968e-07      128.95713 
   36000      143  7.4315292e-07      133.37561 
   37000      143  5.9688862e-07      137.85317 
   38000      143  5.6437717e-07      142.39523 
   39000      143  5.6959996e-07      147.21263 
   40000      143   5.486942e-07      151.58601 
   41000      143  5.6168909e-07      156.31198 
   42000      143  5.5742873e-07       160.8928 
   43000      143  5.4002004e-07      165.68291 
   44000      143  5.2793751e-07      170.29805 
   45000      143  5.3603228e-07       174.9781 
   46000      143   5.313084e-07      179.66199 
   47000      143  5.3971182e-07      184.31022 
   48000      143  5.2168091e-07      189.07224 
   49000      143   5.078037e-07      193.79557 
   50000      143  4.9704602e-07      198.53397 
   51000      143  5.0576754e-07      204.03277 
   52000      143  5.0302033e-07      208.69381 
   53000      143  5.0266907e-07      213.89288 
   54000      143   4.982025e-07      218.99693 
   55000      143  4.7587554e-07      224.39497 
   56000      143   4.803007e-07      229.52496 
   57000      143   4.846276e-07      234.80727 
   58000      143  4.6850733e-07      239.98346 
   59000      143  4.7711069e-07      245.25286 
   60000      143  4.8391712e-07      250.44306 
   61000      143  4.9454561e-07      256.03366 
   62000      143  4.7633434e-07      261.54092 
   63000      143  4.6428042e-07      267.11888 
   64000      143  4.7572227e-07      272.90846 
   65000      143  4.6065343e-07      278.71129 
   66000      143  4.6821778e-07      284.25808 
   67000      143  4.6814509e-07      289.79854 
   68000      143  4.6296482e-07      295.45673 
   69000      143   4.701502e-07      301.40136 
   70000      143  4.7064264e-07      307.14004 
   71000      143  4.4663592e-07      312.98404 
   72000      143  4.4728764e-07      318.60819 
   73000      143  4.3245404e-07      324.26295 
   74000      143  4.1977316e-07      329.95043 
   75000      143  4.3343264e-07      336.04651 
   76000      143  4.2384415e-07      342.07249 
   77000      143  4.2928308e-07       348.3686 
   78000      143  4.3820713e-07      354.55917 
   79000      143    4.40111e-07      360.66288 
   80000      143  4.3194072e-07      366.64922 
   81000      143  4.2209061e-07      372.44122 
   82000      143  4.4010115e-07      378.38549 
   83000      143  4.2524101e-07      384.47661 
   84000      143  4.2162951e-07      390.62453 
   85000      143   4.238459e-07      396.75164 
   86000      143  4.3616457e-07      402.78493 
   87000      143  4.7601528e-07      409.09684 
   88000      143  4.7390214e-07      415.71181 
   89000      143  4.8503093e-07      422.09955 
   90000      143  4.5067921e-07      429.09966 
   91000      143  4.5158329e-07      435.52061 
   92000      143  4.4454517e-07      442.18377 
   93000      143  4.4692733e-07      449.03908 
   94000      143  4.1578152e-07      455.56733 
   95000      143  4.1650413e-07      462.21562 
   96000      143  3.9970103e-07      468.70362 
   97000      143  3.9384452e-07      475.38178 
   98000      143  3.8148924e-07      481.90975 
   99000      143  3.7843704e-07      488.96274 
  100000      143  3.8272022e-07      495.96978 
  101000      143  3.5776356e-07       502.8253 
  102000      143  3.5498647e-07      510.10835 
  103000      143  3.5614472e-07      517.38657 
  104000      143  3.5222858e-07      524.11836 
  105000      143  3.4332854e-07      531.13175 
  106000      143  3.3748488e-07      538.87206 
  107000      143    3.21871e-07      546.83213 
  108000      143  3.0657743e-07      554.67586 
  109000      143  3.0497194e-07       562.0023 
  110000      143  3.0754445e-07      569.47448 
  111000      143  3.0513423e-07      576.76768 
  112000      143  3.1049324e-07      584.10747 
  113000      143  3.0308909e-07      593.19047 
  114000      143  3.0747097e-07      601.73036 
  115000      143  3.0638686e-07      610.83904 
  116000      143  2.9728197e-07      618.43918 
  117000      143  2.9054426e-07      625.84651 
  118000      143  2.8973867e-07      633.45275 
  119000      143  2.8074801e-07      640.75261 
  120000      143  2.8934333e-07      648.38712 
  121000      143  2.9790955e-07      655.92558 
  122000      143  2.9646052e-07      663.57953 
  123000      143  2.9994595e-07      671.19624 
  124000      143  2.9830041e-07      678.79954 
  125000      143  2.5501393e-07      686.29167 
  126000      143  2.4990044e-07      694.29339 
  127000      143   2.486974e-07      702.18299 
  128000      143  2.4382847e-07      710.13697 
  129000      143  2.4875056e-07      718.21564 
  130000      143  2.4421848e-07      726.16294 
  131000      143  2.1833411e-07       734.1389 
  132000      143   2.157452e-07      742.12972 
  133000      143    2.09088e-07      750.03043 
  134000      143  2.0973255e-07      757.80618 
  135000      143   1.942085e-07      765.74035 
  136000      143   1.896409e-07      773.66639 
  137000      143   1.927167e-07      781.61009 
  138000      143   2.011141e-07      789.57628 
  139000      143  1.9856075e-07      797.46048 
  140000      143  1.8808717e-07      805.64371 
  141000      143  1.8829846e-07      813.37586 
  142000      143  1.8811056e-07      822.15818 
  143000      143  1.9128411e-07       830.6011 
  144000      143  1.9776945e-07      839.38144 
  145000      143  1.9133229e-07      847.68266 
  146000      143  1.8223133e-07      855.72089 
  147000      143  1.8383089e-07      864.39081 
  148000      143  1.8407204e-07      872.98261 
  149000      143  1.6135671e-07      881.40583 
  150000      143  1.4720922e-07      890.20717 
INFO: Particle insertion ins: inserted 47 particle templates (mass 2.460914e-05) at step 150001
 - a total of 190 particle templates (mass 9.948377e-05) inserted so far.
  151000      190  2.6445793e-07      899.63706 
  152000      190  2.6594238e-07      908.51854 
  153000      190  1.2657797e-06      917.89739 
  154000      190  2.7196466e-07      926.51467 
  155000      190  2.7613513e-07      935.59429 
  156000      190  2.6061351e-07      944.63947 
  157000      190  2.6836912e-07      954.13225 
  158000      190  2.7507508e-07       963.4054 
  159000      190   2.900655e-07      972.24644 
  160000      190  3.3676532e-07      981.26787 
  161000      190  2.9204052e-07      990.49411 
  162000      190  2.8879748e-07       999.4451 
  163000      190  3.5398333e-07      1008.3209 
  164000      190  3.3679719e-07      1018.6692 
  165000      190  3.4340703e-07      1028.4565 
  166000      190  3.3031997e-07      1037.5023 
  167000      190  3.0498764e-07      1046.9119 
  168000      190   2.866773e-07      1057.1776 
  169000      190  2.6649523e-07      1067.5406 
  170000      190  2.6296127e-07      1077.7145 
  171000      190  2.3197917e-07      1088.2154 
  172000      190  2.2468046e-07      1098.1182 
  173000      190  2.2112035e-07      1107.8159 
  174000      190  2.1494671e-07      1117.5724 
  175000      190  2.1566937e-07      1126.7916 
  176000      190  2.0899428e-07      1136.0683 
  177000      190  2.4645646e-07      1145.4177 
  178000      190  2.0547596e-07      1154.3357 
  179000      190  2.0305886e-07      1163.5146 
  180000      190  1.9963489e-07       1172.608 
  181000      190  2.6775921e-07      1181.5724 
  182000      190  2.4800813e-07      1190.8988 
  183000      190  2.3451699e-07      1200.2294 
  184000      190  2.3132397e-07      1209.4334 
  185000      190  1.9880747e-05      1218.6153 
  186000      190  2.1596734e-07      1228.0164 
  187000      190  2.3336725e-07      1237.1122 
  188000      190  3.7569887e-07      1246.5589 
  189000      190  3.2869732e-07      1255.8873 
  190000      190  2.9323917e-07      1265.4326 
  191000      190  2.6663796e-07      1274.6174 
  192000      190  2.4623429e-07      1283.9237 
  193000      190  2.9866574e-07      1292.8395 
  194000      190  2.9936571e-07      1302.1661 
  195000      190  2.8077372e-07       1311.551 
  196000      190  2.7711451e-07      1320.9998 
  197000      190  2.6621942e-07      1330.2112 
  198000      190  2.6830825e-07      1339.7795 
  199000      190  6.1790938e-06      1349.5594 
  200000      190  1.3120812e-06      1361.6237 
Loop time of 1361.62 on 6 procs for 200000 steps with 190 atoms, finish time Thu May 28 20:45:42 2026


Pair  time (%) = 5.05254 (0.371067)
Neigh time (%) = 0.00222184 (0.000163176)
Comm  time (%) = 0.597157 (0.0438562)
Outpt time (%) = 3.26932 (0.240104)
Other time (%) = 1352.7 (99.3448)

Nlocal:    31.6667 ave 190 max 0 min
Histogram: 5 0 0 0 0 0 0 0 0 1
Nghost:    0 ave 0 max 0 min
Histogram: 6 0 0 0 0 0 0 0 0 0
Neighs:    1222.83 ave 7337 max 0 min
Histogram: 5 0 0 0 0 0 0 0 0 1

Total # of neighbors = 7337
Ave neighs/atom = 38.6158
Neighbor list builds = 22
Dangerous builds = 0

unfix	ins

run	${dischargesteps}
run	5000000
Setting up run at Thu May 28 20:45:42 2026

Memory usage per processor = 25.118 Mbytes
    Step    Atoms         KinEng            CPU 
  200000      190  1.3120812e-06              0 
  201000      190  3.7870895e-07      9.0945344 
  202000      190  3.9263644e-07      18.947302 
  203000      190  4.0952505e-07      28.215865 
  204000      190  5.6099857e-06      38.019523 
  205000      190  1.1065171e-05      47.607601 
  206000      190  3.3459216e-07      57.675613 
  207000      190   3.513812e-07       67.43665 
  208000      190  3.6575427e-07      76.934959 
  209000      190  3.7898273e-07      86.704327 
  210000      190  3.8953512e-07      96.471741 
  211000      190  4.0946873e-07      106.60351 
  212000      190   4.368581e-07      116.40366 
  213000      190  4.3836886e-07      126.32912 
  214000      190  4.4755985e-07      136.31394 
  215000      190   2.919027e-06      146.26099 
  216000      190  1.5015076e-06      155.84256 
  217000      190  8.4661923e-06      165.24656 
  218000      190  9.7643746e-06      175.06358 
  219000      190  9.7786235e-07       184.9486 
  220000      190  8.1271049e-07      195.14409 
  221000      190  1.1932779e-06      205.01212 
  222000      190  2.1613786e-06      214.89327 
  223000      190  1.2760795e-06      224.81862 
  224000      190  9.0540222e-07      235.11182 
  225000      190  1.0118749e-06      245.18449 
  226000      190  5.7127286e-07      255.50836 
  227000      190  5.8300099e-07      266.20914 
  228000      190  5.8191573e-07      277.72144 
  229000      190  6.1028093e-05      288.44912 
  230000      190  5.2126832e-07      298.81034 
  231000      190  5.4043365e-07      309.31976 
  232000      190  5.8940095e-07      320.15319 
  233000      190  4.4150228e-07      330.82543 
  234000      190  3.7537187e-07      341.97414 
  235000      190  3.7400972e-07      353.29491 
  236000      190   3.330915e-05      364.26483 
  237000      190   1.172864e-06      375.00318 
  238000      190  6.9507271e-07      385.70067 
  239000      190   6.144238e-07      396.28332 
  240000      190  3.7781812e-07       407.0066 
  241000      190  3.0294446e-07      418.12836 
  242000      190  2.1588151e-07      429.15714 
  243000      190  2.2680708e-07      440.62134 
  244000      190  2.1898357e-07      451.52296 
  245000      190  1.7526705e-07       462.2923 
  246000      190  1.4870513e-07      473.30492 
  247000      190  1.1755307e-07      484.19621 
  248000      190  1.1488317e-07      495.28789 
  249000      190   1.088429e-07      506.14849 
  250000      190   1.071269e-07      517.10939 
  251000      190  1.0713878e-07      528.24066 
  252000      190  1.0050921e-07      539.08449 
  253000      190  9.3277687e-08      549.68373 
  254000      190  2.2828524e-07      560.44709 
  255000      190  9.3476753e-08      571.62912 
  256000      190  4.0451808e-07       582.8117 
  257000      190  1.7030996e-07      593.91977 
  258000      190  1.3663183e-07      604.93331 
  259000      190  1.4491935e-07      615.64733 
  260000      190  1.1808924e-07      626.70881 
  261000      190  1.0237364e-07      637.58052 
  262000      190  3.3506641e-06       648.6297 
  263000      190  1.8128336e-06      659.48454 
  264000      190  1.5960884e-06      670.90716 
  265000      190  1.4961101e-06      681.87825 
  266000      190  1.5062689e-06      692.45973 
  267000      190  1.4590546e-06      703.35206 
  268000      190  1.4207589e-06      714.38694 
  269000      190  1.6864016e-06       725.5373 
  270000      190  1.3944761e-06      736.80711 
  271000      190  1.3829324e-06      747.80025 
  272000      190  1.3663876e-06      758.68137 
  273000      190  5.7626279e-07      769.52706 
  274000      190  5.6729796e-07      780.31397 
  275000      190  5.5413228e-07      791.01296 
  276000      190  5.4217811e-07      802.32113 
  277000      190  5.3031133e-07       813.2813 
  278000      190  9.1880126e-07      824.07649 
  279000      190  5.1174281e-07      835.07633 
  280000      190  5.0308352e-07       845.9634 
  281000      190   5.011879e-07      857.27317 
  282000      190  4.9350372e-07      868.33434 
  283000      190  4.9023197e-07      879.13736 
  284000      190  4.8360169e-07      889.79751 
  285000      190   6.761145e-07      900.70409 
  286000      190  4.7433004e-07      912.07181 
  287000      190  4.7727687e-07      923.15926 
  288000      190   4.705475e-07      934.40606 
  289000      190  4.6201607e-07      946.21617 
  290000      190  6.5454195e-07      957.33725 
  291000      190  6.3434123e-07      968.89262 
  292000      190  7.2827324e-07      980.40959 
  293000      190  6.9860677e-07      991.59027 
  294000      190  7.0477069e-07      1002.7144 
  295000      190  6.6661523e-07      1013.7945 
  296000      190  6.5401524e-07      1025.0058 
  297000      190  6.3850193e-07      1035.9924 
  298000      190  5.4388392e-07      1047.5041 
  299000      190  5.3248381e-07        1058.96 
  300000      190  5.1891433e-07      1070.1968 
  301000      190  5.0117017e-07      1080.9675 
  302000      190  4.7641873e-07      1091.8552 
  303000      190    1.05592e-05      1103.1519 
  304000      190  4.5110862e-07      1114.2097 
  305000      190  4.6566513e-07      1125.0895 
  306000      190  4.2369082e-07      1136.2352 
  307000      190  4.1150377e-07      1146.9171 
  308000      190  3.9961074e-07       1157.811 
  309000      189  1.5925184e-07      1168.7058 
  310000      189  1.3982812e-07      1179.5566 
  311000      189  1.3393227e-07      1190.9965 
  312000      189  9.4489117e-08      1202.1627 
  313000      189  9.0493852e-08      1212.8026 
  314000      189  8.6348804e-08      1223.8555 
  315000      189  8.4538804e-08      1234.8407 
  316000      189  7.9642747e-08      1245.7613 
  317000      189  7.6005644e-08      1256.6034 
  318000      189  4.3419467e-06      1267.4432 
  319000      189  1.8606847e-05       1278.942 
  320000      189  2.5032293e-06      1289.7359 
  321000      189  6.4086062e-08      1300.4412 
  322000      189  6.2107242e-08      1311.5603 
  323000      189  2.7917056e-07      1322.5811 
  324000      189  5.6146788e-08      1333.5716 
  325000      189  5.7107439e-08      1344.8876 
  326000      189   6.545742e-08      1355.7112 
  327000      189  6.1075046e-08      1366.6077 
  328000      189  5.8624967e-08      1377.9353 
  329000      189  5.7921631e-08       1388.547 
  330000      189  5.5890764e-08      1399.5736 
  331000      189   5.524559e-08      1410.6189 
  332000      189  6.2286141e-08      1421.3458 
  333000      189   5.551301e-08      1432.3577 
  334000      189  5.5710596e-08       1443.492 
  335000      189   6.049065e-08      1455.0957 
  336000      189  7.3654415e-08         1466.2 
  337000      189  6.5076844e-08      1477.0043 
  338000      189  9.6852302e-08      1488.0482 
  339000      189  6.2726193e-08      1498.9319 
  340000      189  6.3868645e-08        1510.25 
  341000      189  5.5936326e-08      1521.8409 
  342000      189  2.3111642e-07      1533.2236 
  343000      189  1.9861154e-07      1544.3521 
  344000      189  1.7830586e-07      1555.1862 
  345000      189  6.3997247e-07      1565.9124 
  346000      189  1.5725108e-07      1577.0397 
  347000      189  1.4900223e-07      1588.2727 
  348000      189  1.9619263e-07      1599.1521 
  349000      189  1.9151833e-07      1609.7247 
  350000      189  1.6605671e-07      1620.6987 
  351000      189  1.6687667e-07      1631.3857 
  352000      189   1.566197e-07      1642.5978 
  353000      189  1.5569078e-07      1653.4279 
  354000      189  1.4935391e-07      1664.5035 
  355000      189  1.4850432e-07      1675.2185 
  356000      189  1.4872292e-07      1686.2278 
  357000      189  1.5631338e-07      1697.2768 
  358000      189  2.9460725e-06      1707.9811 
  359000      189  1.5354832e-07      1719.1289 
  360000      189  1.3422424e-07      1731.1051 
  361000      189  1.3023145e-07      1741.7875 
  362000      189  1.3086449e-07      1752.3528 
  363000      189  1.1855323e-07      1763.1942 
  364000      189  1.3366344e-07      1774.3038 
  365000      189  1.1807942e-07      1785.3818 
  366000      189  1.1561068e-07      1796.2828 
  367000      189  1.1671342e-07      1806.8453 
  368000      189  1.7503876e-07      1817.4406 
  369000      189  7.3392701e-06      1828.1988 
  370000      189  1.3313045e-07      1838.6311 
  371000      189  1.3033998e-07      1849.0343 
  372000      189  3.7197378e-06       1860.422 
  373000      189   1.948229e-07      1870.8929 
  374000      189  1.4915102e-07      1881.3837 
  375000      189   1.368037e-07      1892.1277 
  376000      189  1.3847179e-07      1903.2531 
  377000      189  1.4314346e-07      1914.4448 
  378000      189  1.4189605e-07      1925.5954 
  379000      189  1.4712142e-07      1936.4782 
  380000      189  1.1863432e-07      1947.1762 
  381000      189  9.7332059e-08      1958.1357 
  382000      189  8.8351326e-08      1969.1275 
  383000      189  8.2237113e-08      1980.2549 
  384000      189  7.6888337e-08      1991.0572 
  385000      189  6.6860983e-08      2002.0643 
  386000      189  1.4525367e-07      2012.9817 
  387000      189  7.4960848e-08      2023.4021 
  388000      189  7.2151882e-08      2034.2309 
  389000      189  1.4780946e-06      2045.1518 
  390000      189  8.5420669e-08      2056.3799 
  391000      189  8.3324898e-08      2066.9372 
  392000      189  8.7202344e-08      2077.8745 
  393000      189  8.8264981e-08      2088.3308 
  394000      189  9.9085176e-08      2099.4717 
  395000      189  9.5374372e-08      2110.6135 
  396000      189  9.9153395e-08      2121.4728 
  397000      189  1.0348726e-07      2132.6831 
  398000      189  1.0660636e-07      2143.4759 
  399000      189  1.1573535e-07       2154.303 
  400000      189  1.4175745e-07      2167.5331 
  401000      189  1.2601368e-07      2178.3358 
  402000      189  1.2333397e-07      2189.3044 
  403000      189  1.0508899e-07      2200.1976 
  404000      189  1.0821003e-07      2211.0367 
  405000      189  1.0818806e-07      2222.3918 
  406000      189  1.0616315e-07      2234.1721 
  407000      189  1.0960951e-07      2245.6563 
  408000      189  1.1066725e-07      2256.7017 
  409000      189  1.6565808e-07      2267.6995 
  410000      189  2.2799824e-06      2278.6891 
  411000      189  1.1635694e-07      2289.7282 
  412000      189  1.1410367e-07      2300.5654 
  413000      189  1.1404021e-07      2311.3578 
  414000      189  1.1636824e-07       2322.267 
  415000      189  1.1549886e-07      2332.9263 
  416000      189  7.8074585e-08      2343.9836 
  417000      189  5.3489603e-06      2355.0133 
  418000      189  1.1237009e-07      2366.0226 
  419000      189  8.2610064e-08      2377.3963 
  420000      189  9.4055633e-08      2388.2791 
  421000      189  1.9236661e-07       2399.449 
  422000      189  1.1210553e-07      2410.8824 
  423000      189   9.456659e-08      2421.5939 
  424000      189  1.3106509e-07      2432.2814 
  425000      189  9.5637395e-08      2443.5905 
  426000      189  6.4516296e-08      2454.6697 
  427000      189  5.9816567e-08      2466.1374 
  428000      189   6.032783e-08       2476.942 
  429000      189  6.2288656e-08      2487.6214 
  430000      189  3.9473671e-08      2498.6159 
  431000      189   2.611463e-05      2510.0164 
  432000      189  3.7818447e-08      2520.7934 
  433000      189  3.3657907e-08      2532.0097 
  434000      189  2.8828284e-08      2543.5663 
  435000      189  1.2212058e-07      2554.9413 
  436000      189  2.5727906e-08       2565.978 
  437000      189  2.1957572e-08      2577.1902 
  438000      189  2.0277581e-08      2587.9271 
  439000      189  2.2905773e-08      2599.3062 
  440000      189  2.2259849e-08      2610.0849 
  441000      189   2.659304e-08      2620.9575 
  442000      189  2.4735594e-08      2631.9542 
  443000      189   1.578478e-07      2643.1537 
  444000      189  1.2780132e-07      2654.5122 
  445000      189  1.1515453e-07      2665.7069 
  446000      189  1.2021506e-07      2676.8055 
  447000      189  1.2047655e-07       2688.038 
  448000      189  9.8959362e-08      2699.4579 
  449000      189  1.7961178e-07      2710.2567 
  450000      189  7.2149329e-06      2721.3381 
  451000      189  1.4365678e-05      2732.5483 
  452000      189  4.8074514e-08      2743.3025 
  453000      189  4.6870531e-08      2754.0821 
  454000      189  4.5210745e-08      2765.3595 
  455000      189  5.0654114e-08      2776.4136 
  456000      189  4.7032518e-08      2787.7881 
  457000      189  4.4743104e-08      2798.1724 
  458000      189  4.5040368e-08      2809.4138 
  459000      189  4.1716549e-08      2820.8252 
  460000      189  1.2648612e-07      2831.7722 
  461000      189  4.8569043e-08      2842.4767 
  462000      189  4.8040224e-08      2852.9931 
  463000      189  3.3000249e-08      2863.6922 
  464000      189  3.3385572e-08      2874.6341 
  465000      189  4.6299843e-08      2885.3858 
  466000      189  2.2742382e-07      2896.2406 
  467000      189  3.7473792e-06      2907.4223 
  468000      189  4.6938958e-08      2918.5637 
  469000      189  2.7164531e-08      2929.3105 
  470000      189  8.4636992e-08      2940.4831 
  471000      189  3.5602187e-07      2951.7713 
  472000      189  2.1774063e-08      2963.2392 
  473000      189  5.6512156e-06      2973.8844 
  474000      189  7.3003987e-08      2984.9006 
  475000      189  3.5921387e-06      2995.7906 
  476000      189  2.6774942e-08      3007.0869 
  477000      189  1.9783792e-06      3018.2229 
  478000      189  2.2465311e-08      3029.3787 
  479000      189  2.8391375e-08      3040.2468 
  480000      189  4.7024873e-06      3051.3024 
  481000      189  2.2351482e-08      3062.3904 
  482000      189  9.1039954e-06      3073.2403 
  483000      189  6.6368864e-06      3084.3676 
  484000      189  8.3674314e-06       3095.232 
  485000      189  2.1672046e-08      3106.0565 
  486000      189  1.9300409e-08      3117.0715 
  487000      189  1.8303412e-08      3128.1838 
  488000      189  6.4929927e-08      3138.8534 
  489000      189  2.0779924e-08      3150.3316 
  490000      189  3.2125576e-08      3161.3003 
  491000      189   2.597393e-08       3172.795 
  492000      189  1.8862808e-08      3183.9608 
  493000      189  2.1769032e-08      3194.7905 
  494000      189  2.4028325e-08      3205.9861 
  495000      189  2.2547645e-08      3217.0772 
  496000      189  2.8749945e-08      3227.8565 
  497000      189   2.888834e-08      3238.9242 
  498000      189  3.3210145e-08      3250.0658 
  499000      189  4.1398311e-08      3261.7892 
  500000      189  7.3908097e-08      3272.9935 
  501000      189  7.5794031e-06      3284.0402 
  502000      189  4.9292094e-08      3295.5008 
  503000      189  4.8149548e-08      3307.2471 
  504000      189  4.4597664e-08      3319.2049 
  505000      189  3.9787759e-08      3331.0347 
  506000      189  1.4703891e-07      3341.8129 
  507000      189  4.9467527e-08      3352.7747 
  508000      189   6.139436e-08      3364.0502 
  509000      189  4.4956186e-06      3375.0082 
  510000      189  2.2930387e-05      3386.0186 
  511000      189   1.041965e-07      3396.6444 
  512000      189  5.7633447e-08      3407.4747 
  513000      189  5.6311906e-05      3418.6605 
  514000      189  5.9356286e-08      3429.9548 
  515000      189  6.0795687e-08      3440.8823 
  516000      189   6.858322e-08      3451.8296 
  517000      189  7.2914145e-08      3462.4479 
  518000      189  4.0756266e-06       3473.477 
  519000      189   1.782149e-05      3484.0862 
  520000      189  3.3398828e-06      3495.1697 
  521000      189  8.3688278e-06      3505.6594 
  522000      189  1.9118411e-05      3516.6193 
  523000      189  1.4941966e-07       3527.798 
  524000      189  6.8129505e-05       3539.081 
  525000      189  0.00017375739       3549.848 
  526000      189  6.0646345e-05      3561.0292 
  527000      189  3.4831092e-05      3571.5913 
  528000      189  6.4287894e-05      3582.4094 
  529000      189  3.3129905e-05      3593.5512 
  530000      189  3.3235971e-05      3604.3853 
  531000      189  5.6044671e-05       3615.246 
  532000      189    0.000101251       3626.756 
  533000      189   5.753821e-05      3639.0093 
  534000      189  2.2899078e-06      3651.2472 
  535000      189  3.6484774e-05      3662.9219 
  536000      189  1.5997106e-05      3673.6033 
  537000      189  2.1469575e-05       3684.835 
  538000      189    1.85677e-05      3695.7856 
  539000      189  8.6394496e-08      3706.5892 
  540000      189  8.1783843e-08      3717.5952 
  541000      189  6.3746775e-08      3728.6115 
  542000      189  6.3600805e-08       3739.234 
  543000      189  2.2648231e-07      3749.8341 
  544000      189  1.6348732e-06         3760.4 
  545000      189  1.7709418e-07      3771.2851 
  546000      189  1.8859299e-05      3782.6443 
  547000      189  3.1610419e-05      3793.2433 
  548000      189  4.5939703e-07      3803.7528 
  549000      189  1.1271552e-07      3814.1304 
  550000      189  5.5268043e-06      3825.4461 
  551000      189  2.4105821e-06      3836.0704 
  552000      189  2.4747008e-07       3847.111 
  553000      189  4.5046914e-06       3858.085 
  554000      189  2.8211455e-07      3868.9755 
  555000      189  2.7851464e-05      3879.3195 
  556000      189  5.5822356e-07      3889.7259 
  557000      189  2.0336484e-06      3900.5186 
  558000      189  3.5744707e-06      3910.9773 
  559000      189  3.3797958e-07      3921.7495 
  560000      189  1.4383656e-06      3932.9047 
  561000      189  8.9506481e-07       3944.001 
  562000      189  7.9461836e-06      3955.0726 
  563000      189  9.3875231e-08      3965.8871 
  564000      189  2.9949779e-07       3976.629 
  565000      189    8.57629e-08       3987.126 
  566000      189  7.7608622e-08       3998.155 
  567000      189  8.1427334e-08      4009.0162 
  568000      189  8.0317384e-08      4019.7902 
  569000      189  1.0878366e-07      4030.3858 
  570000      189  8.4896135e-08      4041.2656 
  571000      189   2.136203e-06      4052.0344 
  572000      189  8.5550337e-08      4062.8408 
  573000      189  7.8196321e-08      4073.5375 
  574000      189  2.4767319e-06      4084.5682 
  575000      189  8.9504162e-08      4095.4403 
  576000      189  9.5337806e-08      4106.4079 
  577000      189  9.0747639e-08      4117.1732 
  578000      189  8.2791208e-08      4127.6928 
  579000      189  7.9252961e-08      4138.6913 
  580000      189  9.7012851e-08      4149.6722 
  581000      189  1.5864648e-07      4160.8661 
  582000      189  8.3076924e-08      4171.9989 
  583000      189  8.9522885e-08      4183.0943 
  584000      189  8.3511774e-08      4194.1066 
  585000      189  7.2529366e-08      4205.3029 
  586000      189  1.5890792e-07       4216.573 
  587000      189  7.5993718e-08      4227.9386 
  588000      189  1.2237192e-06      4238.7281 
  589000      189  1.4296822e-06      4249.3661 
  590000      189  5.6237123e-08      4260.4709 
  591000      189  1.0006857e-07      4271.8674 
  592000      189  7.8583194e-08      4282.8365 
  593000      189  3.5082912e-06       4293.407 
  594000      189   6.719175e-08      4304.1883 
  595000      189  6.1860144e-08      4314.8343 
  596000      189  7.6820955e-08      4325.9721 
  597000      189   2.022874e-07      4336.6673 
  598000      189  8.5314867e-08      4347.9491 
  599000      189  5.0968707e-08      4358.3672 
  600000      189  6.7844249e-08      4371.8416 
  601000      189  6.2189541e-08      4382.7092 
  602000      189  1.2321595e-07      4393.6081 
  603000      189  4.4620391e-08      4404.5606 
  604000      189  4.4926845e-08      4415.3586 
  605000      189  1.5120033e-07      4426.5074 
  606000      189  6.3418271e-08      4437.0462 
  607000      189  5.8271094e-08      4448.9222 
  608000      189  1.0732384e-07      4460.2054 
  609000      189   2.893631e-07      4472.6194 
  610000      189  1.0974309e-07      4484.6621 
  611000      189  1.2947958e-06      4496.9792 
  612000      189  8.0526183e-07      4509.1933 
  613000      189  6.1182895e-08      4521.2923 
  614000      189  1.8885454e-07      4533.2833 
  615000      189  4.6081736e-07      4544.8818 
  616000      189    1.40717e-07      4556.6784 
  617000      189  1.2207095e-06      4568.3809 
  618000      189  1.3497963e-07      4580.7153 
  619000      189  1.5155223e-07      4592.5948 
  620000      189  1.5005633e-07      4603.7086 
  621000      189  1.0399811e-07      4615.2371 
  622000      189  1.3917735e-06      4626.8377 
  623000      189  3.5578102e-07      4637.9766 
  624000      189  2.9298035e-07      4648.9512 
  625000      189   2.717718e-07      4659.5155 
  626000      189  2.5255691e-07       4670.442 
  627000      189  2.4936982e-07      4681.1687 
  628000      189  2.7772069e-07      4691.7349 
  629000      189  3.1945281e-07      4702.7641 
  630000      189  2.2909645e-07      4713.2733 
  631000      189  2.3181489e-07      4724.2682 
  632000      189  2.3645051e-07      4734.7498 
  633000      189  2.0394403e-07      4745.3396 
  634000      189  1.9527314e-07       4756.135 
  635000      189  2.0989189e-07      4766.6458 
  636000      189  1.8302304e-06      4777.7138 
  637000      189  2.0261878e-07      4788.3421 
  638000      189  1.6829191e-07      4798.7868 
  639000      189  1.4945266e-07      4808.9823 
  640000      189  1.4454192e-07      4819.7176 
  641000      189  1.4059006e-07       4830.795 
  642000      189  1.3592639e-07      4841.4017 
  643000      189  1.4615972e-07      4851.7475 
  644000      189  1.4484151e-07      4862.3525 
  645000      189  1.4377563e-07      4873.1389 
  646000      189  2.5952002e-07      4883.8683 
  647000      189  1.8238118e-07      4894.3283 
  648000      189  6.2133425e-07      4904.9567 
  649000      189   3.318044e-06      4915.2669 
  650000      189  1.8939026e-07      4926.0882 
  651000      189   1.391326e-07       4936.225 
  652000      189  1.4164568e-07      4946.5376 
  653000      189  1.6200705e-07      4957.4067 
  654000      189  4.6113799e-06      4968.1469 
  655000      189  1.2639308e-05      4978.8284 
  656000      189  4.1386933e-06      4989.7115 
  657000      189  9.7417649e-06      5000.1236 
  658000      189  6.4503173e-06      5010.8394 
  659000      189  9.3671397e-06       5021.144 
  660000      189  4.2179545e-06      5032.3861 
  661000      189   5.618368e-06      5044.2742 
  662000      189  2.4613431e-05      5054.8325 
  663000      189  4.2543649e-06      5065.4996 
  664000      189  2.9056895e-05      5076.1033 
  665000      189  2.8788038e-05      5086.5702 
  666000      189  7.4320316e-06      5097.1754 
  667000      189  2.0315755e-05      5107.7156 
  668000      189  6.0414842e-06      5118.1231 
  669000      189   7.942073e-06      5128.8883 
  670000      189  2.8626263e-05      5139.4052 
  671000      189  4.0165294e-05      5149.6951 
  672000      188  3.8782164e-06      5160.1293 
  673000      188  2.2749844e-05      5170.3451 
  674000      188  2.0749627e-05       5180.686 
  675000      188  5.3796939e-06       5191.291 
  676000      188  1.4578935e-05      5201.8493 
  677000      188  7.7154752e-06      5212.1528 
  678000      188  3.9713777e-05      5222.4849 
  679000      188  1.1484366e-05      5233.0064 
  680000      188  2.2230079e-05      5243.2654 
  681000      188  2.2379781e-05      5253.4557 
  682000      188  6.4759965e-05      5263.2883 
  683000      188  1.5078238e-05      5273.4579 
  684000      188  1.0580994e-05      5283.4697 
  685000      188  3.9843101e-06      5293.6514 
  686000      188  2.1687162e-06      5304.0537 
  687000      188   2.325162e-05      5314.0858 
  688000      188  2.1124807e-05      5324.2848 
  689000      188  2.3844567e-05      5334.2978 
  690000      188  9.0996064e-06      5344.4323 
  691000      188  2.2895309e-05       5354.517 
  692000      188  3.2942174e-05      5364.5526 
  693000      188  2.0272497e-05      5374.2008 
  694000      188  4.1495308e-05       5384.588 
  695000      188  2.7514344e-05      5395.1104 
  696000      188  4.3041241e-05       5404.967 
  697000      188  1.2105382e-05      5414.8832 
  698000      188   3.457306e-05      5425.2469 
  699000      188  2.0611296e-05       5435.292 
  700000      188  4.7187636e-05      5445.1446 
  701000      188  1.6473524e-05      5454.6619 
  702000      188  2.8189437e-05      5464.3945 
  703000      188  2.1503927e-05      5474.1939 
  704000      188  4.4051785e-05      5484.3509 
  705000      187  2.9094809e-05      5495.2197 
  706000      187  1.0958528e-05      5505.7865 
  707000      186   1.121725e-05        5516.38 
  708000      186  1.0413884e-05      5527.2773 
  709000      186  5.9782474e-05      5538.2857 
  710000      186  0.00011101285      5548.6472 
  711000      186  6.1721545e-05      5559.3752 
  712000      186  0.00012884585      5569.8698 
  713000      186  6.1245731e-05      5580.5888 
  714000      186  2.0934269e-05      5591.3276 
  715000      186  1.5796756e-05      5601.9628 
  716000      186  6.9199783e-06      5612.7833 
  717000      186  1.2268622e-05      5623.3454 
  718000      186  2.2888772e-05      5635.4105 
  719000      186  7.7824238e-06      5648.6041 
  720000      186  3.7170532e-06      5669.6192 
  721000      186  2.2416769e-06      5680.2394 
  722000      186  9.0842886e-06      5690.5095 
  723000      186  3.5881055e-07      5700.7046 
  724000      186  4.4132478e-07      5710.6234 
  725000      186  6.9745509e-06       5720.713 
  726000      186  6.3361901e-06      5730.6621 
  727000      186  3.1357059e-07      5741.1145 
  728000      186  8.9733054e-07      5751.4786 
  729000      186  8.1156739e-07      5761.7733 
  730000      186  2.7151597e-07      5771.8799 
  731000      186  1.0064649e-06      5781.7855 
  732000      186  6.3045816e-06      5792.2157 
  733000      186  2.7373744e-07      5802.0615 
  734000      186  3.8625916e-07      5811.6365 
  735000      186  5.6104116e-07      5822.1055 
  736000      186  3.8495116e-07      5832.4811 
  737000      186  3.8083085e-07      5842.9836 
  738000      186   3.585685e-07      5852.9752 
  739000      186  3.6436391e-07      5863.2857 
  740000      186  3.9195326e-07      5873.4274 
  741000      186  4.8492302e-07      5883.7526 
  742000      186  4.4840103e-07      5894.2441 
  743000      186   4.043458e-07      5904.9084 
  744000      186  4.0004259e-07      5914.9267 
  745000      186  3.9314109e-07      5925.1261 
  746000      186  7.8434363e-06      5935.9224 
  747000      186  1.1794837e-06      5946.1687 
  748000      186   5.159888e-07      5956.0289 
  749000      186  4.1252121e-07      5966.1294 
  750000      186  3.8497457e-07      5976.4145 
  751000      186  8.2477299e-07      5986.5827 
  752000      186  3.9191478e-07      5996.9767 
  753000      186  3.7654134e-07      6007.4658 
  754000      186  3.4175466e-07       6017.676 
  755000      186  3.3540943e-07      6028.1162 
  756000      186  3.0762202e-07      6038.4949 
  757000      186  9.5767767e-07      6049.0603 
  758000      186   2.937677e-07      6059.7086 
  759000      186  2.1845979e-06      6070.1213 
  760000      186   3.210493e-07      6080.2977 
  761000      186  3.3098334e-07      6090.5882 
  762000      186  3.4320419e-07      6101.0636 
  763000      186   3.204605e-07       6111.201 
  764000      186  2.9226699e-07      6121.7858 
  765000      186  2.4406458e-07      6132.1897 
  766000      186  2.4329708e-07      6142.5549 
  767000      186  2.9649654e-07      6152.7256 
  768000      186  2.3405927e-07      6163.0367 
  769000      186  2.2990037e-07      6173.6498 
  770000      186  2.8366849e-07      6183.8149 
  771000      186  2.3161607e-07      6193.8315 
  772000      186  1.1911754e-06      6203.9901 
  773000      186   2.086054e-07      6214.3284 
  774000      186  2.4272299e-06      6224.0862 
  775000      186  2.2128528e-07      6234.4799 
  776000      186  2.2456071e-06      6245.2356 
  777000      186    2.24696e-06      6255.8386 
  778000      186  2.2172603e-06      6266.5626 
  779000      186  2.2007656e-06      6276.6096 
  780000      186  2.1170281e-06      6286.8556 
  781000      186  2.1890945e-06      6296.9616 
  782000      186  2.1093768e-06       6307.572 
  783000      186  2.0952956e-06      6317.5317 
  784000      186  2.0833264e-06      6327.8613 
  785000      186    2.77764e-06      6338.0094 
  786000      186  3.7036805e-06      6348.2061 
  787000      186  5.8518049e-06      6358.4254 
  788000      186  1.9154184e-06      6368.5658 
  789000      186  1.8674323e-06      6379.4807 
  790000      186  4.6021742e-06      6390.4187 
  791000      186  1.7355817e-06      6400.9993 
  792000      186  1.5158728e-06      6411.6893 
  793000      186  1.5354698e-06      6421.5711 
  794000      186  1.5626513e-06      6431.7087 
  795000      186   1.258072e-06      6442.4256 
  796000      186  1.5960754e-05      6452.1611 
  797000      186  9.8774188e-07      6462.1465 
  798000      186   9.771092e-07      6472.4909 
  799000      186  9.6135118e-07      6482.5017 
  800000      186  8.7146837e-07      6495.8107 
  801000      186  8.6125944e-07      6506.2477 
  802000      186  8.5630612e-07      6516.5263 
  803000      186  9.5585592e-07      6526.4935 
  804000      186  8.1099382e-07      6536.5036 
  805000      186  8.4648493e-07      6547.1016 
  806000      186  2.0387904e-06      6557.3796 
  807000      186  1.0105307e-06      6568.0804 
  808000      186  7.3691104e-07      6578.4268 
  809000      186  7.2780579e-07      6588.9346 
  810000      186  8.7865619e-07      6599.2907 
  811000      186  9.3174199e-07      6609.7438 
  812000      186  8.6399384e-07      6619.8999 
  813000      186  8.4830431e-07      6630.3758 
  814000      186  7.6799435e-07      6640.7654 
  815000      186  7.4254413e-07      6650.6495 
  816000      186  9.2992371e-07      6660.9258 
  817000      186  7.5499696e-07      6671.1634 
  818000      186  6.5282699e-07      6681.9625 
  819000      186  6.4312841e-07      6692.3526 
  820000      186  1.2890226e-06      6702.7236 
  821000      186  8.2319952e-07      6713.2505 
  822000      186  6.4053736e-07      6723.9889 
  823000      186  5.8598511e-07      6734.1713 
  824000      186   6.264472e-07      6744.7689 
  825000      186  7.0018633e-06       6754.773 
  826000      186  5.5986619e-07      6764.7346 
  827000      186  5.3701602e-07      6775.0853 
  828000      186  4.7284821e-07      6785.4215 
  829000      186  4.8521199e-07      6795.8492 
  830000      185  5.7116587e-07      6806.5406 
  831000      185  2.9450537e-07      6817.2031 
  832000      185    2.87014e-07        6827.49 
  833000      185  2.8609085e-07      6838.1863 
  834000      185  2.7255369e-07      6849.1276 
  835000      185  2.3992451e-07       6860.275 
  836000      185  4.5213766e-07      6871.6555 
  837000      185  3.4603453e-07       6883.142 
  838000      185   4.600598e-07      6894.2732 
  839000      185  2.3195646e-07      6904.9498 
  840000      185  2.1490216e-07      6915.0503 
  841000      185  2.1901998e-07      6924.9814 
  842000      185  2.1501054e-07      6934.9988 
  843000      185  3.7561483e-07       6945.283 
  844000      185  2.2379593e-07      6955.8223 
  845000      185  1.2910973e-06      6966.2425 
  846000      185  4.4654154e-07      6975.9187 
  847000      185   1.928632e-07      6986.3166 
  848000      185  1.8483422e-07      6996.6201 
  849000      185  1.9030787e-07      7006.8537 
  850000      185  1.4655677e-06      7017.5036 
  851000      185  3.6549752e-07      7028.3659 
  852000      185  1.7108455e-07      7039.5002 
  853000      185  1.8877705e-07      7049.4075 
  854000      185  2.3146517e-07      7059.6846 
  855000      185   1.168166e-06      7069.5852 
  856000      185  1.8489663e-07      7079.6965 
  857000      185  5.0701329e-06      7090.0678 
  858000      185  1.7391228e-07      7100.2273 
  859000      185  1.8288067e-07      7110.7581 
  860000      185   2.217074e-07      7121.2728 
  861000      185  5.8064363e-07      7131.7394 
  862000      185  5.3178908e-07      7141.7885 
  863000      185  4.1467693e-07       7152.153 
  864000      185  4.0956264e-06      7162.7248 
  865000      185  3.5163593e-07      7173.6059 
  866000      185  3.4414296e-07      7185.0955 
  867000      185  1.1690158e-06      7197.1364 
  868000      185  3.3863741e-07      7208.5281 
  869000      185  3.3272129e-07      7219.2587 
  870000      185  2.7065327e-07       7229.183 
  871000      185  2.5690282e-07      7239.7368 
  872000      185  2.4290586e-07      7250.6772 
  873000      185   2.345098e-07       7261.527 
  874000      185  2.3960451e-07      7272.3977 
  875000      185  3.4997497e-07      7283.3975 
  876000      185  2.2908309e-07       7294.004 
  877000      185  2.3556338e-07        7305.03 
  878000      185  2.4625477e-07      7315.8039 
  879000      185      2.156e-07       7326.935 
  880000      185  2.0275895e-07      7337.7754 
  881000      185  3.5576879e-07      7348.6743 
  882000      185  2.7459167e-07      7359.4104 
  883000      185  2.0460393e-07      7370.1518 
  884000      185  2.2043481e-07      7381.1779 
  885000      185  2.7948148e-07      7392.0376 
  886000      185   6.118987e-07      7402.6466 
  887000      185  1.9040983e-07       7413.504 
  888000      185  2.4919294e-07      7424.0275 
  889000      185  1.9468785e-07      7434.7378 
  890000      185  2.3089595e-07      7445.6746 
  891000      185  2.0485631e-07       7455.993 
  892000      185   2.056181e-07      7466.5756 
  893000      185  2.0726822e-06      7477.0485 
  894000      185  2.0271265e-07      7487.7452 
  895000      185  2.0497466e-07      7498.4615 
  896000      185  2.1825737e-07      7509.1202 
  897000      185  3.2490354e-05      7519.7211 
  898000      185  2.8430252e-05      7530.4241 
  899000      185  1.1909919e-05       7541.413 
  900000      185  3.0246209e-05      7551.9044 
  901000      185  4.3193361e-05      7562.1654 
  902000      185  7.3181033e-06      7572.6145 
  903000      185  2.0742594e-05      7583.2577 
  904000      185  3.9384317e-06      7593.9308 
  905000      185  2.8131892e-06      7604.6089 
  906000      185  9.9179556e-06      7615.0259 
  907000      185  7.4454168e-06      7625.8498 
  908000      185  2.0795369e-06      7636.5402 
  909000      185  9.6598711e-06      7646.9043 
  910000      185  8.9226571e-06      7657.1486 
  911000      185   8.056564e-06      7667.8305 
  912000      185  7.4990179e-06      7678.6789 
  913000      185  6.2840999e-06      7689.3248 
  914000      185  5.5794121e-05      7700.0256 
  915000      185  3.2925915e-06      7710.6869 
  916000      185  5.0607714e-07      7721.0415 
  917000      185  3.7410485e-07       7731.154 
  918000      185  3.7617778e-07      7741.8671 
  919000      185  9.4069921e-07      7752.6614 
  920000      185    4.01618e-07      7763.2377 
  921000      185  5.3018374e-07      7774.1516 
  922000      185  3.7346312e-07      7784.7552 
  923000      185   6.714538e-07      7795.5347 
  924000      185  3.6399747e-07      7806.2978 
  925000      185  3.6435063e-07      7816.1553 
  926000      185  4.0209502e-07      7826.9065 
  927000      185  2.9976331e-06      7837.5752 
  928000      185  3.8068569e-07      7848.0525 
  929000      185  3.9844907e-07      7859.3664 
  930000      185  3.8821453e-07      7869.8892 
  931000      185  3.9103836e-07      7880.5249 
  932000      185   4.009791e-07      7890.8936 
  933000      185  4.1076547e-07       7901.731 
  934000      185  4.1771099e-07      7912.0116 
  935000      185   1.207054e-05      7922.2443 
  936000      185  4.7469578e-07      7932.6043 
  937000      184   2.977509e-06       7943.256 
  938000      184  2.5289467e-07      7954.1897 
  939000      184  2.7610573e-07      7964.6505 
  940000      184  2.5010982e-07      7975.2842 
  941000      184  2.5241366e-07      7986.1018 
  942000      184  2.4776015e-07      7996.5971 
  943000      184  3.1410238e-06      8007.2378 
  944000      184  5.7801124e-07      8017.8279 
  945000      184  6.6581389e-06      8028.4724 
  946000      184  2.2887369e-06      8039.7156 
  947000      184  1.7928617e-06      8050.6428 
  948000      184  9.0497629e-06      8061.3218 
  949000      184  2.5018807e-06      8071.5707 
  950000      184  2.2214199e-06      8081.7703 
  951000      184  9.6728107e-06      8092.2598 
  952000      184  2.0587916e-06      8102.9714 
  953000      184  5.2993836e-06      8113.7586 
  954000      184  1.7622495e-06      8124.1629 
  955000      184   2.699002e-07      8135.0008 
  956000      184  5.6145593e-05      8145.3991 
  957000      184  6.3067063e-06      8155.7928 
  958000      184  2.4795659e-06      8166.3205 
  959000      184  2.6343368e-07      8177.1036 
  960000      184  1.3656456e-06      8187.7564 
  961000      184  2.9082792e-07      8198.2125 
  962000      184  3.1089698e-07      8208.8896 
  963000      184  6.8166051e-06      8219.6809 
  964000      184  2.5822313e-06      8230.2357 
  965000      183  2.9092623e-07      8240.9018 
  966000      183  8.6005475e-08      8251.4781 
  967000      183  4.6559279e-08      8262.4943 
  968000      183  4.3057548e-08      8272.8874 
  969000      183  3.2701207e-07      8283.2804 
  970000      183  7.9863729e-08      8293.8272 
  971000      183  7.4151497e-08      8304.2547 
  972000      183  6.3765692e-08      8314.6857 
  973000      183  1.2783842e-07      8324.6339 
  974000      183  1.9031915e-05       8335.303 
  975000      183  7.5794733e-06      8345.9213 
  976000      183  3.1072538e-05      8356.2432 
  977000      183   9.553131e-06      8366.7736 
  978000      183  2.3547638e-07      8377.3988 
  979000      183  1.2180623e-07      8387.6539 
  980000      183   2.278823e-06      8398.1014 
  981000      183  0.00016079067      8408.9893 
  982000      183  1.1278507e-06      8419.3414 
  983000      183  6.3062815e-05      8429.7809 
  984000      183  7.7941024e-05      8440.6478 
  985000      183  9.5405653e-05      8451.3288 
  986000      183  3.6177561e-05       8461.995 
  987000      183  3.3880804e-05      8472.8129 
  988000      183  9.4893394e-05      8483.3557 
  989000      183  1.8688039e-05      8493.8983 
  990000      183  5.9275105e-05      8504.3922 
  991000      183  2.3869775e-05      8514.5521 
  992000      183  5.1789268e-05      8524.8544 
  993000      183   3.688717e-05      8535.4789 
  994000      183  3.0536006e-05      8546.0169 
  995000      183  3.2562283e-05      8556.4092 
  996000      183  4.8772181e-05      8567.3386 
  997000      183  3.2192739e-06      8578.3861 
  998000      183  1.3214193e-05      8589.0752 
  999000      183  1.2748931e-05      8599.4401 
 1000000      183  2.4885363e-05      8612.1861 
 1001000      183  1.0145838e-06      8622.5209 
 1002000      183  2.2933476e-05      8633.3602 
 1003000      183  5.6871591e-06       8644.779 
 1004000      183  3.0001529e-05      8655.1475 
 1005000      183   2.632275e-05      8665.8763 
 1006000      183  4.3101912e-06      8676.2676 
 1007000      183  3.4386824e-08      8686.7352 
 1008000      183  3.3995087e-06      8697.5121 
 1009000      183  4.7822369e-08      8707.9402 
 1010000      183  1.2617959e-05      8718.7795 
 1011000      183  4.2120395e-08      8729.2461 
 1012000      183  6.8072416e-07      8739.8108 
 1013000      183  1.3043675e-06       8750.278 
 1014000      183    4.36416e-08      8761.0693 
 1015000      183  1.0396406e-06      8771.8262 
 1016000      183  3.2905486e-06      8782.7463 
 1017000      183  1.8411123e-07      8793.6434 
 1018000      183  2.0644138e-06      8804.2702 
 1019000      183  1.3922323e-07      8814.9068 
 1020000      183  1.3653413e-07      8825.7288 
 1021000      183  1.2304285e-07      8836.6783 
 1022000      183  1.1928628e-07      8847.3806 
 1023000      183  1.0254446e-07      8857.9247 
 1024000      183  1.5231247e-07      8868.5235 
 1025000      183  5.5640342e-07      8879.2414 
 1026000      183  1.1143933e-07      8889.9437 
 1027000      183  9.9865389e-08      8900.9769 
 1028000      183  6.7112745e-06      8912.2503 
 1029000      183  1.5888778e-06      8922.5163 
 1030000      183  1.2132338e-05      8933.3623 
 1031000      183  1.7200084e-05       8943.981 
 1032000      183  1.9386311e-06      8954.5949 
 1033000      183  1.2763815e-05      8964.8828 
 1034000      183  2.3445497e-05      8975.5617 
 1035000      183  3.8323174e-07      8985.9611 
 1036000      183  2.8439373e-06      8996.5117 
 1037000      183  1.0053699e-05      9007.1859 
 1038000      183  3.6109357e-07       9017.418 
 1039000      183  2.4350203e-06      9027.9511 
 1040000      183  3.5450799e-07      9038.3156 
 1041000      183  2.9733079e-07      9048.8357 
 1042000      183  2.6402828e-07      9059.1094 
 1043000      183  2.4576336e-07      9070.0114 
 1044000      183   2.323214e-07      9080.5232 
 1045000      183  4.2241238e-06      9090.9823 
 1046000      183  2.1110807e-07      9101.3277 
 1047000      183   1.861325e-07      9111.5432 
 1048000      183  3.3494461e-07      9121.9861 
 1049000      183  3.4501705e-07      9132.1405 
 1050000      183  1.9311946e-06      9142.5048 
 1051000      183  5.7892472e-06       9152.282 
 1052000      183  2.3521921e-06      9162.8901 
 1053000      183  1.2427723e-06      9173.1993 
 1054000      183    4.57634e-07      9183.9451 
 1055000      183  4.5461005e-06      9194.1841 
 1056000      183  1.5225417e-05      9205.0551 
 1057000      183  1.2574604e-05      9215.6092 
 1058000      183  1.9362676e-05      9226.0776 
 1059000      183  5.1764149e-06      9236.7781 
 1060000      183  3.3422798e-05      9247.4438 
 1061000      183  1.4157272e-05      9257.7507 
 1062000      183  2.7593614e-05      9268.3405 
 1063000      183  4.7897773e-06      9278.7279 
 1064000      183  2.9217643e-05      9288.7295 
 1065000      183  1.7551556e-05      9299.1076 
 1066000      183  5.5503457e-06      9309.4162 
 1067000      183  1.9109823e-07      9320.2158 
 1068000      183  2.6257838e-07      9330.6596 
 1069000      183  1.9628185e-07      9341.2719 
 1070000      183  1.8575108e-07      9351.8638 
 1071000      183  1.7620034e-07      9362.5138 
 1072000      183  1.7299272e-07      9372.4196 
 1073000      183  1.7706996e-07      9382.6628 
 1074000      183  2.2017842e-07      9393.0428 
 1075000      183  2.7930531e-07      9403.4515 
 1076000      183  2.7546469e-07      9413.1994 
 1077000      183  1.4793661e-06      9423.5493 
 1078000      183  2.6013522e-05      9434.0101 
 1079000      183  1.1563436e-05      9444.3964 
 1080000      183  1.3837828e-05      9454.4852 
 1081000      183  1.2982931e-05      9464.3699 
 1082000      183  7.3893535e-06      9474.7865 
 1083000      183  1.9461478e-06      9486.2784 
 1084000      183  8.5423016e-06      9496.8594 
 1085000      183  5.5258189e-06      9507.2596 
 1086000      183  8.1386385e-06      9517.6474 
 1087000      183   3.153679e-07      9528.0159 
 1088000      183  4.0826697e-05       9538.678 
 1089000      183  2.2337027e-05       9548.839 
 1090000      183  6.2153785e-05      9559.0783 
 1091000      183  3.5906171e-05      9569.3485 
 1092000      183  5.1189626e-05      9579.6098 
 1093000      183  5.9719063e-05      9590.0681 
 1094000      183  0.00011239158      9600.4634 
 1095000      183  0.00010145723      9610.7646 
 1096000      183  0.00013757162      9620.9674 
 1097000      183  7.5998256e-05      9631.1417 
 1098000      183  1.4609566e-05      9641.1968 
 1099000      183    2.16326e-05      9651.4236 
 1100000      183  2.9835762e-05      9661.8285 
 1101000      183   1.880475e-05      9671.6276 
 1102000      183  1.5743908e-05      9682.3011 
 1103000      183  4.1928534e-05      9692.5029 
 1104000      183  2.7495002e-05      9702.5383 
 1105000      183  2.4511157e-05      9712.4891 
 1106000      183  1.9135554e-05      9722.6885 
 1107000      183  2.5569866e-05      9732.8001 
 1108000      183  1.3323358e-06      9743.0181 
 1109000      183  1.1029029e-06      9752.9789 
 1110000      183    2.37041e-05      9762.9409 
 1111000      183  3.0962769e-06      9773.3375 
 1112000      183  7.9666198e-06      9783.3132 
 1113000      183  5.6331933e-05      9793.3857 
 1114000      183  3.1396739e-05      9803.8054 
 1115000      183  4.7407624e-05      9814.1981 
 1116000      183  2.8693912e-05      9824.1674 
 1117000      183  1.4914335e-06      9834.7201 
 1118000      183  2.1017878e-05      9844.7249 
 1119000      183  1.9319002e-05       9854.944 
 1120000      183  3.8298021e-06      9864.9065 
 1121000      183  3.4441442e-06      9874.9584 
 1122000      183  2.5465596e-05      9885.0623 
 1123000      183  3.0744882e-05      9895.2355 
 1124000      183  2.9995855e-05       9905.534 
 1125000      183  4.0567337e-05      9915.5244 
 1126000      183  2.2676422e-05       9925.932 
 1127000      183  5.2312805e-05       9935.832 
 1128000      183  3.1618071e-05      9945.9214 
 1129000      183  1.8565002e-05       9956.306 
 1130000      183  6.2834242e-05        9966.59 
 1131000      183  2.7360562e-05      9976.9287 
 1132000      183  6.4023611e-05       9986.784 
 1133000      183  6.1575446e-05      9996.8155 
 1134000      183  2.1205707e-05      10006.633 
 1135000      183  1.6729079e-05      10016.749 
 1136000      183  6.4549509e-05      10026.842 
 1137000      183  3.4097247e-05      10036.755 
 1138000      183  1.4483223e-05      10047.497 
 1139000      183  2.4014075e-05      10057.691 
 1140000      183  1.3393928e-05      10067.396 
 1141000      183  4.3927305e-05      10077.634 
 1142000      183  3.9610736e-05      10087.662 
 1143000      183  4.7225586e-05       10098.08 
 1144000      183  1.6917001e-06      10108.167 
 1145000      183  2.3360518e-06      10118.369 
 1146000      183   5.047655e-06      10128.845 
 1147000      183  1.8625442e-05       10139.16 
 1148000      183  4.6355039e-06        10149.3 
 1149000      183  4.6306394e-07      10159.375 
 1150000      183  3.1960989e-07      10170.161 
 1151000      183  4.5270629e-07      10180.377 
 1152000      183  1.0905486e-05       10190.52 
 1153000      182  2.6267283e-06      10200.522 
 1154000      182  3.6412479e-07      10210.713 
 1155000      182  1.5339062e-05      10221.024 
 1156000      182    1.49176e-06      10231.023 
 1157000      182  5.3226739e-06      10241.193 
 1158000      182  8.3913612e-06      10251.359 
 1159000      182  9.3506536e-07      10261.634 
 1160000      182  1.1096871e-05      10271.632 
 1161000      182  3.2171445e-05      10281.826 
 1162000      182  2.4540141e-05       10291.43 
 1163000      182  1.8790145e-05      10301.296 
 1164000      182  1.1575589e-05      10311.738 
 1165000      182  2.7940799e-05       10322.06 
 1166000      182  7.7349314e-07      10332.194 
 1167000      182  1.7396318e-05      10342.397 
 1168000      182  6.4385091e-06      10352.788 
 1169000      182  1.7001402e-07      10362.895 
 1170000      182   1.713415e-07      10373.057 
 1171000      182  1.5646883e-06      10382.649 
 1172000      182  9.3274239e-07      10392.626 
 1173000      182  2.1787395e-07      10402.353 
 1174000      182  4.5630628e-05       10412.78 
 1175000      182  1.9692333e-07      10422.902 
 1176000      182   2.223083e-05       10433.74 
 1177000      182  7.5945028e-07       10444.55 
 1178000      182  9.6256275e-06      10454.988 
 1179000      182  1.9698633e-07      10465.033 
 1180000      182  1.0404578e-05      10475.409 
 1181000      182  1.8800177e-05       10486.33 
 1182000      182  8.7792492e-07      10497.078 
 1183000      182  1.7373862e-05      10507.963 
 1184000      182  2.8132767e-07      10518.655 
 1185000      182  3.1643648e-07      10528.728 
 1186000      182  1.7500304e-06      10538.923 
 1187000      182  2.4651566e-07      10549.044 
 1188000      182  2.4944775e-07      10559.311 
 1189000      182  2.5742241e-07      10569.481 
 1190000      182  4.1652083e-07      10579.711 
 1191000      182   8.699565e-07      10589.959 
 1192000      182  2.9173067e-07      10599.661 
 1193000      182  5.2278766e-05       10609.54 
 1194000      182  3.5156119e-07      10619.872 
 1195000      182  3.2579629e-07      10631.374 
 1196000      182    3.22112e-07      10642.099 
 1197000      182  3.4907724e-07      10652.378 
 1198000      182  3.4666772e-07      10662.426 
 1199000      182   4.848069e-07      10672.738 
 1200000      182  1.5276096e-06      10685.664 
 1201000      182  1.0714002e-05      10696.399 
 1202000      182  1.1826487e-06      10706.655 
 1203000      182  1.0865246e-06      10717.018 
 1204000      182  1.0255727e-06      10727.319 
 1205000      182  1.1584083e-06      10738.124 
 1206000      182  9.8400604e-07      10748.385 
 1207000      182  9.7571368e-07      10758.633 
 1208000      182  2.2901212e-06      10768.716 
 1209000      182  9.7652897e-07      10779.018 
 1210000      182   8.817336e-07      10789.188 
 1211000      182  8.5216592e-07      10799.343 
 1212000      182   8.305709e-07      10809.553 
 1213000      182  8.3564036e-07      10819.474 
 1214000      182  7.9994668e-07      10829.904 
 1215000      182  8.1800821e-07      10840.093 
 1216000      182  8.2267894e-07      10850.036 
 1217000      182  7.8757188e-07      10860.346 
 1218000      182  8.5843543e-07      10870.112 
 1219000      182  9.8299075e-07      10880.156 
 1220000      182  8.4317195e-07      10890.161 
 1221000      182  8.4917485e-07       10900.28 
 1222000      182  7.9445095e-07      10910.299 
 1223000      182  7.5467242e-07      10920.092 
 1224000      182  8.5994813e-07       10931.15 
 1225000      182   8.507352e-07      10941.406 
 1226000      182  7.6837117e-07      10951.525 
 1227000      182  7.6777483e-07      10961.248 
 1228000      182  7.5181766e-07      10971.168 
 1229000      182  7.1898335e-07      10981.225 
 1230000      182  7.1558614e-07      10991.043 
 1231000      182  7.1720591e-07      11000.983 
 1232000      182  2.5747402e-06      11011.864 
 1233000      182  4.1500321e-06      11022.004 
 1234000      182   7.238175e-07      11032.238 
 1235000      182  7.3123512e-07      11042.145 
 1236000      182  7.2522756e-07      11052.093 
 1237000      182  1.0908066e-06      11061.895 
 1238000      182   7.238972e-07      11071.816 
 1239000      182  7.2509651e-07      11081.659 
 1240000      182  1.1451644e-06      11091.393 
 1241000      182  8.3773656e-07      11101.471 
 1242000      181   6.840522e-07      11111.292 
 1243000      181  5.7534884e-07      11120.949 
 1244000      181  3.2080317e-06      11131.216 
 1245000      181  2.0356232e-06      11141.377 
 1246000      181  1.1759956e-06      11151.365 
 1247000      181  9.5971197e-07       11161.76 
 1248000      181  9.2445022e-07      11171.981 
 1249000      181  8.7630503e-07      11182.228 
 1250000      181  8.3912637e-07      11192.017 
 1251000      181  8.1508265e-07      11202.099 
 1252000      181  8.0584442e-07      11211.975 
 1253000      181  1.9840453e-06      11221.673 
 1254000      180  6.2519472e-07      11231.663 
 1255000      180  5.9983099e-07       11242.11 
 1256000      180  6.1245535e-07      11252.187 
 1257000      180  6.1442058e-07      11262.322 
 1258000      180  6.2006184e-07      11272.163 
 1259000      180  5.7375885e-07      11282.426 
 1260000      180  7.4623247e-06      11292.463 
 1261000      180  4.0685931e-05      11302.537 
 1262000      180  4.2316531e-05      11312.442 
 1263000      180  3.1200728e-05      11322.405 
 1264000      180  0.00011525794      11332.191 
 1265000      180  7.1488568e-05      11342.318 
 1266000      180  1.6578699e-05      11352.677 
 1267000      180   5.983177e-05      11362.708 
 1268000      180  4.5953085e-07      11372.522 
 1269000      180  4.6457786e-07      11382.271 
 1270000      180  7.8625514e-06      11392.479 
 1271000      180  4.5832002e-07      11402.421 
 1272000      180  6.2635367e-07      11412.118 
 1273000      180  6.2058402e-07      11422.053 
 1274000      180  3.0780078e-06       11432.18 
 1275000      180  6.1310121e-07      11442.121 
 1276000      180  8.5353234e-07      11452.041 
 1277000      180  7.4608222e-07      11462.406 
 1278000      180  7.1631273e-07      11472.189 
 1279000      180  7.1234502e-07      11482.002 
 1280000      180  7.4055739e-07      11492.347 
 1281000      180  7.2798272e-07      11502.534 
 1282000      180  7.1983139e-07      11512.658 
 1283000      180   7.300177e-07      11522.445 
 1284000      180  7.5227189e-07      11532.777 
 1285000      180   1.021058e-06      11542.973 
 1286000      180  1.2621056e-06      11552.737 
 1287000      180  1.2820337e-06      11562.819 
 1288000      180  7.5262515e-07      11573.043 
 1289000      180  7.4815925e-07      11582.939 
 1290000      180  8.8095342e-07      11592.779 
 1291000      180  5.3204842e-06      11602.766 
 1292000      180  7.4157054e-07      11612.788 
 1293000      180  7.5221326e-07      11622.553 
 1294000      180  1.3512583e-06      11632.911 
 1295000      180  7.5826389e-07      11643.253 
 1296000      180  7.7656833e-07      11653.376 
 1297000      180  7.4041099e-07      11663.613 
 1298000      180  7.6186337e-07      11673.575 
 1299000      180  8.9243857e-07      11683.758 
 1300000      180  7.5214464e-07      11694.081 
 1301000      179  3.6711271e-07      11704.208 
 1302000      179  3.7472206e-07      11714.664 
 1303000      179  3.8334891e-07      11725.248 
 1304000      179  3.2672172e-06      11735.328 
 1305000      179  8.1815442e-06      11745.642 
 1306000      179  1.3211376e-05      11756.274 
 1307000      179  9.7306593e-07      11766.913 
 1308000      179  8.2545434e-07      11777.238 
 1309000      179  3.3835345e-07       11787.37 
 1310000      179   3.990067e-07      11797.481 
 1311000      179   3.590086e-07      11807.638 
 1312000      179  4.7023155e-07      11818.131 
 1313000      179  6.9037483e-07       11828.63 
 1314000      179  6.1405673e-07      11839.165 
 1315000      179  1.3279656e-06      11849.551 
 1316000      179  8.6543374e-06      11859.859 
 1317000      179  4.4856394e-07      11869.943 
 1318000      179  5.9799222e-07      11880.449 
 1319000      179  3.7530137e-07      11891.015 
 1320000      179  3.5988718e-07      11901.274 
 1321000      179   3.462222e-07        11911.8 
 1322000      179   3.872466e-07      11921.724 
 1323000      179  3.1190452e-07      11932.324 
 1324000      179  1.0582213e-05       11943.08 
 1325000      179  5.5069719e-07      11953.248 
 1326000      179  2.3418844e-07      11963.616 
 1327000      179  2.0534957e-07      11974.112 
 1328000      179  2.0923737e-07      11984.802 
 1329000      179   2.083741e-07      11995.545 
 1330000      179  1.8359868e-07      12006.172 
 1331000      179  1.7369059e-07      12016.369 
 1332000      179  1.6062886e-07      12026.626 
 1333000      179  2.2939876e-07      12036.701 
 1334000      179  1.5720098e-07      12046.937 
 1335000      179  1.5442942e-06      12057.203 
 1336000      179   1.594359e-07      12067.914 
 1337000      179  1.4292167e-07        12078.3 
 1338000      179  1.4211266e-07      12088.841 
[...]
 4805000      137  4.0700644e-05      44977.899 
 4806000      137  7.4114914e-06      44986.701 
 4807000      137  2.5257709e-06      44995.627 
 4808000      137  2.5659716e-05      45004.553 
 4809000      137  8.0374898e-06      45013.382 
 4810000      137  6.5641021e-06      45022.322 
 4811000      137  1.3339741e-05      45031.403 
 4812000      137  8.9973175e-06      45040.331 
 4813000      137  1.3455041e-07      45048.847 
 4814000      137  1.8972237e-07      45057.806 
 4815000      137  2.9570753e-07      45066.814 
 4816000      137  1.1180075e-07       45075.48 
 4817000      137  1.0838439e-07      45084.259 
 4818000      137  1.0701083e-07      45093.024 
 4819000      137  1.0696621e-07      45102.025 
 4820000      137  3.5767288e-07      45110.539 
 4821000      137  1.0578179e-07      45119.098 
 4822000      137  9.0063399e-07      45127.933 
 4823000      137  7.0580098e-07      45136.627 
 4824000      137  1.0686119e-07      45145.351 
 4825000      137  1.0026406e-07      45154.461 
 4826000      137  2.5612516e-06      45163.135 
 4827000      137  7.1673354e-06      45171.912 
 4828000      137  1.3374347e-07      45180.383 
 4829000      137  1.1233158e-07      45189.699 
 4830000      137  1.3539858e-07      45198.672 
 4831000      137  2.3518275e-07      45207.409 
 4832000      137  1.0563381e-05      45216.341 
 4833000      137  2.5494676e-06      45224.948 
 4834000      137  7.8807778e-07      45234.146 
 4835000      137  8.8467321e-08      45243.347 
 4836000      137  9.2047708e-08       45252.45 
 4837000      137  9.0268842e-08      45261.006 
 4838000      137  9.2583503e-08       45269.93 
 4839000      137  1.6380938e-06      45278.718 
 4840000      137  4.2730501e-07      45287.479 
 4841000      137  2.1604083e-06      45296.639 
 4842000      137   4.856101e-06      45305.497 
 4843000      137  1.6828504e-07      45314.139 
 4844000      137  9.9611157e-08      45322.692 
 4845000      137  4.2278232e-06      45331.628 
 4846000      137  6.4140948e-06      45340.498 
 4847000      137  7.6772086e-08      45349.204 
 4848000      137  5.3246166e-06       45357.98 
 4849000      137  1.1015077e-07      45366.789 
 4850000      137  1.0017713e-07      45375.529 
 4851000      137    9.29815e-08       45384.46 
 4852000      137  1.8666595e-07      45393.282 
 4853000      137  1.0371382e-07      45401.828 
 4854000      137  9.6340434e-08      45410.635 
 4855000      137  7.5297248e-08      45419.844 
 4856000      137  7.1223327e-08       45429.26 
 4857000      137  6.8958526e-08      45437.987 
 4858000      137  8.0541423e-08       45446.72 
 4859000      137  9.6108693e-08      45455.673 
 4860000      137  9.3525751e-06      45464.512 
 4861000      137  1.4862562e-07      45473.346 
 4862000      137  1.0442925e-07      45482.097 
 4863000      137  7.8425164e-08      45491.127 
 4864000      137  2.8782752e-07       45499.99 
 4865000      137  2.4076083e-06       45508.96 
 4866000      137  9.6650207e-06      45518.032 
 4867000      137  1.2110488e-05      45526.826 
 4868000      137  1.9657136e-06      45535.747 
 4869000      137  1.0778774e-06      45544.455 
 4870000      137  4.7646588e-08       45553.43 
 4871000      137  6.9815807e-08      45562.497 
 4872000      137  4.5779873e-08      45571.271 
 4873000      137  7.6706574e-08      45580.246 
 4874000      137  9.3816692e-07      45589.317 
 4875000      137  4.9994919e-06      45598.122 
 4876000      137   6.237131e-06      45607.057 
 4877000      137  8.0710641e-06      45616.028 
 4878000      137  5.6732361e-07      45624.634 
 4879000      137  4.5814899e-08      45633.547 
 4880000      137  4.9144237e-06      45642.473 
 4881000      137  2.9579786e-06      45651.658 
 4882000      137  4.5101851e-06      45660.641 
 4883000      137  8.1137587e-06      45669.577 
 4884000      137  7.8976578e-07      45678.435 
 4885000      137  1.1620968e-06      45687.158 
 4886000      137  2.5553577e-06      45696.147 
 4887000      137  2.1582855e-07      45704.993 
 4888000      137  7.1236214e-08      45714.237 
 4889000      137  2.2838213e-07      45723.537 
 4890000      137  3.7713619e-08      45732.513 
 4891000      137  2.1508421e-06      45741.682 
 4892000      137  1.0096455e-07      45750.483 
 4893000      137  3.7459438e-08      45759.381 
 4894000      137  5.5382981e-07      45767.998 
 4895000      137  3.1944614e-08      45776.933 
 4896000      137  6.6560487e-07      45785.916 
 4897000      137   3.490516e-08       45794.83 
 4898000      137  5.6508706e-08      45804.094 
 4899000      137  4.8072514e-08      45812.736 
 4900000      137  9.6769933e-07      45821.658 
 4901000      137  4.2060383e-07      45830.646 
 4902000      137  1.3219467e-06       45839.18 
 4903000      137  3.1794436e-07      45848.005 
 4904000      137  3.5280073e-08      45857.889 
 4905000      137  2.9814249e-08      45866.632 
 4906000      137   1.602754e-06      45875.654 
 4907000      137  2.8562367e-08      45884.522 
 4908000      137  2.0838472e-06      45893.675 
 4909000      137  3.3242099e-08      45902.365 
 4910000      137  3.2494888e-06      45911.125 
 4911000      137  3.5899365e-08       45919.95 
 4912000      137  5.0304853e-08      45928.712 
 4913000      137  3.3483778e-08      45937.668 
 4914000      137  4.1949043e-08      45946.662 
 4915000      137  3.4111851e-08      45955.663 
 4916000      137  3.4438748e-08      45964.451 
 4917000      137  4.5252945e-08      45973.475 
 4918000      137  1.0182287e-06       45982.34 
 4919000      137  3.1514476e-08      45990.985 
 4920000      137   3.458678e-08      45999.813 
 4921000      137  5.4260242e-07      46008.588 
 4922000      137  3.5616578e-08       46017.44 
 4923000      137  2.6168982e-08      46026.122 
 4924000      137  2.9570642e-08      46035.175 
 4925000      137  1.0677742e-07       46044.23 
 4926000      137  2.9742702e-07      46053.484 
 4927000      137  1.0713266e-07       46062.35 
 4928000      137  2.8787178e-06      46071.585 
 4929000      137  1.1613443e-05      46080.626 
 4930000      137  8.4102457e-06      46089.562 
 4931000      137  3.5179633e-08      46098.339 
 4932000      137  3.1290616e-08      46107.385 
 4933000      137   9.855762e-08      46116.241 
 4934000      137  1.0483894e-07      46125.238 
 4935000      137  3.1329552e-08      46134.174 
 4936000      137  3.1363199e-08      46143.121 
 4937000      137  4.4258129e-08      46152.307 
 4938000      137  5.6911717e-08      46160.712 
 4939000      137  7.4401554e-08      46169.347 
 4940000      137  4.4647686e-08      46178.283 
 4941000      137   3.561499e-08      46187.453 
 4942000      137  6.7083017e-08      46196.102 
 4943000      137  2.5781302e-07      46205.075 
 4944000      137  3.2256201e-08      46213.794 
 4945000      137  3.2852596e-08      46222.544 
 4946000      137  3.3549128e-06      46231.391 
 4947000      137  3.7341323e-08      46240.275 
 4948000      137  1.2099587e-07      46249.253 
 4949000      137  3.5251371e-08      46258.538 
 4950000      137  7.3294364e-06      46267.401 
 4951000      137  4.0520834e-08      46276.458 
 4952000      137   3.556023e-08      46285.634 
 4953000      137  3.8572049e-08      46294.392 
 4954000      137  3.4207363e-08      46303.261 
 4955000      137  1.2920459e-07      46312.219 
 4956000      137  1.0333419e-05      46321.709 
 4957000      137  7.6558461e-06       46331.41 
 4958000      137  6.5168484e-06        46341.3 
 4959000      137  2.2204359e-07      46351.001 
 4960000      137  1.7335618e-07      46360.119 
 4961000      137  4.5280959e-08      46368.916 
 4962000      137  1.1542508e-07      46377.782 
 4963000      137  3.4720973e-08      46387.251 
 4964000      137  3.5717545e-08      46396.089 
 4965000      137  3.6262566e-08      46405.056 
 4966000      137  3.9637588e-08      46413.911 
 4967000      137  5.9250508e-06      46422.757 
 4968000      137  2.7087528e-06      46431.749 
 4969000      137  1.2624094e-05      46440.611 
 4970000      137  2.1108459e-06      46449.728 
 4971000      137  6.0380583e-06      46458.551 
 4972000      137  1.1542673e-07      46467.571 
 4973000      137  9.0250188e-08      46476.537 
 4974000      137  8.5560848e-08      46485.387 
 4975000      137  1.1393611e-07      46494.295 
 4976000      137  3.8923128e-06      46503.074 
 4977000      137  1.2200806e-05       46512.03 
 4978000      137   8.849638e-06      46520.693 
 4979000      137  1.0663011e-07      46529.593 
 4980000      137  7.3676497e-08      46538.494 
 4981000      137  3.7679673e-06      46547.073 
 4982000      137   7.556694e-08      46555.905 
 4983000      137   1.921711e-05      46564.812 
 4984000      137  6.0509019e-05      46573.632 
 4985000      137  7.2871876e-08      46582.569 
 4986000      137  7.0516312e-08      46591.279 
 4987000      137  1.1528088e-07      46600.143 
 4988000      137  1.1788307e-07      46608.943 
 4989000      137  6.2581136e-08       46617.58 
 4990000      137  6.2454524e-08      46626.427 
 4991000      137  2.4497207e-07      46635.397 
 4992000      137  1.8327707e-06      46643.964 
 4993000      137  8.2206811e-08      46652.635 
 4994000      137  7.5906637e-08      46661.484 
 4995000      137  2.8818624e-06       46669.81 
 4996000      137  2.1945478e-06       46678.84 
 4997000      137  5.2209084e-06       46687.72 
 4998000      137  1.4439616e-05      46696.156 
 4999000      137  6.2295479e-06      46705.099 
 5000000      137   1.419311e-05      46716.355 
 5001000      137  9.2975154e-06      46725.037 
 5002000      137  4.0150679e-06      46733.785 
 5003000      137  2.0612711e-05      46742.777 
 5004000      137  3.1762488e-06      46751.468 
 5005000      137  6.6521263e-08      46760.421 
 5006000      137  6.3348532e-08      46770.016 
 5007000      137   1.372466e-07      46780.159 
 5008000      137  6.2999474e-08      46790.138 
 5009000      137  5.8346568e-08      46799.996 
 5010000      137  9.9870502e-08      46808.476 
 5011000      137  9.9031692e-08      46817.513 
 5012000      137  1.5812509e-06      46826.176 
 5013000      137  1.6828445e-06      46835.056 
 5014000      137  7.2147162e-06      46843.883 
 5015000      137  6.9058929e-05      46852.449 
 5016000      137  4.7890528e-07      46861.073 
 5017000      137  7.3780597e-08      46869.713 
 5018000      137  1.6756188e-06      46878.491 
 5019000      137  8.2672376e-08      46887.432 
 5020000      137  5.6217524e-07      46896.528 
 5021000      137  3.7706082e-07      46905.568 
 5022000      137    1.92908e-07      46914.371 
 5023000      137  1.4229916e-07      46923.156 
 5024000      137  1.2980551e-07      46931.963 
 5025000      137   1.196603e-07      46940.628 
 5026000      137  9.7529465e-08      46949.183 
 5027000      137  7.5411878e-07       46958.05 
 5028000      137  2.1825275e-06      46966.861 
 5029000      137  9.6722579e-08      46975.636 
 5030000      137  9.4415263e-08      46984.953 
 5031000      137  7.0216051e-07      46993.908 
 5032000      137  5.0246042e-06      47002.776 
 5033000      137  8.4980999e-06      47011.674 
 5034000      137  1.4202832e-06      47020.603 
 5035000      137  6.4055808e-07      47029.622 
 5036000      137  1.3425666e-05      47038.604 
 5037000      137   2.239175e-06      47047.563 
 5038000      137  1.2461051e-05       47055.99 
 5039000      137   3.291523e-06      47064.754 
 5040000      137  7.0123862e-07      47073.481 
 5041000      137  5.2933907e-05      47082.548 
 5042000      137  1.2552449e-06      47091.189 
 5043000      137  9.6267951e-06      47099.934 
 5044000      137   3.804659e-06      47109.164 
 5045000      137  1.5388169e-06      47118.022 
 5046000      137  3.3465865e-05      47126.796 
 5047000      137   1.923796e-05      47135.797 
 5048000      137  2.4623602e-06      47144.648 
 5049000      137  1.3356965e-05      47153.062 
 5050000      137  1.3498662e-05      47161.892 
 5051000      137  3.8922004e-06      47170.658 
 5052000      137   3.665336e-06       47179.51 
 5053000      137  3.5171757e-06      47188.367 
 5054000      137  1.3789085e-05      47196.963 
 5055000      137  2.0257918e-05      47205.403 
 5056000      137  1.0829788e-05      47213.933 
 5057000      137  2.7981459e-05      47222.615 
 5058000      137  2.8702092e-05      47231.218 
 5059000      137  4.5889682e-05      47239.978 
 5060000      137   1.073461e-05      47248.783 
 5061000      137   1.563966e-05       47257.48 
 5062000      137  2.2019808e-05      47266.173 
 5063000      137  3.0248285e-05      47275.168 
 5064000      137  7.3195472e-06      47283.949 
 5065000      137   7.022996e-06      47292.309 
 5066000      137  5.9276513e-06      47300.826 
 5067000      137   5.092449e-06      47309.615 
 5068000      137  5.7827249e-06      47318.314 
 5069000      137  3.4484093e-06      47326.661 
 5070000      137  2.9042277e-06       47335.07 
 5071000      137  7.6779993e-06       47344.16 
 5072000      137  7.1854891e-06      47352.576 
 5073000      137  9.9540453e-06      47361.071 
 5074000      136  6.7799105e-05      47369.871 
 5075000      136  9.8937446e-05      47378.598 
 5076000      136  1.9341108e-05      47387.032 
 5077000      136  5.5989859e-06      47395.709 
 5078000      136  7.7166463e-05      47404.337 
 5079000      136  9.2167984e-06      47412.775 
 5080000      136  5.5654289e-05      47421.422 
 5081000      136  4.5041306e-05      47429.963 
 5082000      136   5.722283e-05      47438.179 
 5083000      136  7.7175955e-06      47446.692 
 5084000      136  6.6712195e-06      47454.996 
 5085000      136  6.3338456e-06      47463.617 
 5086000      136  1.6615514e-05      47472.334 
 5087000      136  1.9150934e-05      47480.862 
 5088000      136  3.7895792e-05      47489.315 
 5089000      135  3.7642113e-05      47497.925 
 5090000      135  6.5172646e-05      47506.605 
 5091000      135  5.8596266e-05      47515.107 
 5092000      135  2.1861813e-05      47523.778 
 5093000      135  4.0111601e-05      47532.312 
 5094000      135  4.1425011e-06       47540.98 
 5095000      135  2.4283254e-05      47549.734 
 5096000      134  3.5649048e-05      47558.385 
 5097000      134  1.5258886e-05      47566.418 
 5098000      134  2.5635176e-05      47574.916 
 5099000      134   1.290747e-05      47583.894 
 5100000      134  4.8832982e-05      47592.751 
 5101000      134  1.8547347e-05      47601.385 
 5102000      134   4.391353e-05      47610.191 
 5103000      134  2.4160813e-05      47619.015 
 5104000      134  1.6165403e-05      47627.585 
 5105000      134  3.1506209e-06      47636.434 
 5106000      134  1.8311014e-06      47644.883 
 5107000      134  9.2228236e-06      47653.256 
 5108000      134  2.6627404e-05      47663.181 
 5109000      134  1.5418216e-05      47672.926 
 5110000      134  1.8885645e-06      47682.694 
 5111000      134  3.4048886e-06      47692.756 
 5112000      134  3.1467794e-06      47702.754 
 5113000      134   9.052523e-06      47713.124 
 5114000      134  7.0904044e-06      47722.564 
 5115000      134  1.7006211e-05      47732.421 
 5116000      134  1.0355041e-05      47741.812 
 5117000      134   5.746773e-06      47750.651 
 5118000      133  3.9596237e-05      47759.432 
 5119000      133  1.6500011e-05      47768.091 
 5120000      133  6.4189855e-06      47776.602 
 5121000      133  1.6289052e-05      47785.045 
 5122000      133  2.5916393e-05       47793.55 
 5123000      133  1.8169993e-05      47802.359 
 5124000      133  4.4653721e-06      47810.702 
 5125000      133   7.077564e-06      47819.313 
 5126000      133  7.1820803e-06      47827.906 
 5127000      133  7.5002931e-06      47836.361 
 5128000      133  1.5714563e-05      47845.093 
 5129000      133  4.1273345e-06      47853.811 
 5130000      133  4.6284101e-05      47862.106 
 5131000      133  4.7611506e-05      47870.553 
 5132000      133  4.1512208e-05      47879.055 
 5133000      133  9.8767075e-07      47888.083 
 5134000      133  5.0464921e-06      47896.288 
 5135000      133  5.1290193e-06       47905.02 
 5136000      133  3.4174985e-06      47913.455 
 5137000      133  2.6749207e-05      47922.163 
 5138000      133   1.006057e-06       47930.56 
 5139000      133   8.919359e-06      47939.266 
 5140000      133  4.9777532e-05      47948.024 
 5141000      133  1.8987358e-05       47956.58 
 5142000      133  1.0481439e-05      47965.376 
 5143000      133  2.8300076e-05      47973.895 
 5144000      133  2.4657668e-06      47982.472 
 5145000      133  1.6034731e-05      47990.924 
 5146000      133  1.3897162e-05      47999.327 
 5147000      133  2.4112415e-05      48007.713 
 5148000      133  1.1884406e-05      48016.502 
 5149000      133  3.9938985e-05      48025.302 
 5150000      133  5.2322919e-05      48033.774 
 5151000      133  2.2686886e-05      48042.584 
 5152000      133  5.6952189e-05      48051.216 
 5153000      133  4.0582111e-05      48059.927 
 5154000      133  2.9892968e-05      48068.777 
 5155000      133  3.7033541e-05      48077.261 
 5156000      133  6.6502511e-05      48086.092 
 5157000      133    1.04947e-05      48094.518 
 5158000      133  2.6649678e-05      48103.131 
 5159000      133  4.9622228e-05       48111.77 
 5160000      133  9.8565213e-05      48120.184 
 5161000      133  4.1723307e-05      48128.888 
 5162000      133  6.2420571e-05      48137.543 
 5163000      133  3.8226747e-05      48146.074 
 5164000      133  2.5752935e-05      48154.582 
 5165000      133  3.6248755e-05      48163.237 
 5166000      133  6.0961249e-06      48172.384 
 5167000      133  2.0705302e-05      48181.412 
 5168000      133  3.3007124e-05       48190.44 
 5169000      132  2.4842369e-05      48198.823 
 5170000      132  3.5508907e-07      48207.655 
 5171000      132  4.4107023e-06      48216.062 
 5172000      132  2.3399068e-05      48224.664 
 5173000      132   1.603402e-05      48233.542 
 5174000      132  3.8572426e-05      48242.223 
 5175000      132  1.1710144e-05      48251.139 
 5176000      132  2.5064736e-05      48259.503 
 5177000      132  3.6625166e-06      48268.286 
 5178000      132  4.6054057e-07      48276.932 
 5179000      132  2.8085943e-05      48285.775 
 5180000      132  1.7694577e-05      48294.536 
 5181000      132  4.0951304e-05      48303.218 
 5182000      132  7.3920872e-05      48311.915 
 5183000      132  2.7708283e-05       48320.22 
 5184000      132  9.5919093e-06      48328.764 
 5185000      132    5.50457e-05      48337.401 
 5186000      132  2.6133065e-05      48345.923 
 5187000      132  4.5977708e-05      48354.808 
 5188000      132  9.4359279e-06      48363.384 
 5189000      132  3.9246663e-05      48372.323 
 5190000      132  1.2009184e-05      48381.415 
 5191000      132   4.363634e-05      48390.064 
 5192000      132  7.4262189e-05      48398.778 
 5193000      132  2.3803608e-05      48407.173 
 5194000      132  5.0521427e-05      48415.843 
 5195000      132  5.0177667e-05       48424.39 
 5196000      132  4.4975803e-05       48432.92 
 5197000      132  3.0326953e-05      48441.705 
 5198000      132  1.7217342e-05      48450.304 
 5199000      132  1.0173161e-05      48458.529 
 5200000      132  4.3700052e-07      48469.578 
Loop time of 48469.6 on 6 procs for 5000000 steps with 132 atoms, finish time Fri May 29 10:14:43 2026


Pair  time (%) = 139.825 (0.28848)
Neigh time (%) = 0.18343 (0.000378443)
Comm  time (%) = 15.4773 (0.031932)
Outpt time (%) = 94.2058 (0.194361)
Other time (%) = 48219.9 (99.4848)

Nlocal:    22 ave 132 max 0 min
Histogram: 5 0 0 0 0 0 0 0 0 1
Nghost:    0.166667 ave 1 max 0 min
Histogram: 5 0 0 0 0 0 0 0 0 1
Neighs:    284.167 ave 1705 max 0 min
Histogram: 5 0 0 0 0 0 0 0 0 1

Total # of neighbors = 1705
Ave neighs/atom = 12.9167
Neighbor list builds = 1356
Dangerous builds = 0
