# vtk DataFile Version 3.0
LIGGGHTS particles timestep 14000000
ASCII
DATASET POLYDATA
POINTS 136 float
0.0304149 0.0229219 0.00949576
0.0404441 0.0155333 0.00908505
0.0219209 0.0148763 0.0151514
0.0469582 0.0173732 0.0061601
0.0386601 0.0177379 0.0155212
0.0398898 0.0148134 0.0115162
0.0238815 0.0211759 0.00792938
0.0382195 0.0197929 0.0157447
0.0291574 0.0180715 0.00733479
0.0270544 0.0162696 0.0147323
0.0221375 0.0154979 0.0141795
0.0592125 0.017612 0.00598053
0.015764 0.0234908 0.0142489
0.0218801 0.0147478 0.0115516
0.041166 0.0181638 0.007284
0.154353 0.0180393 0.00580707
0.0218764 0.0129001 0.0206893
0.0231802 0.0153518 0.0139595
0.0198092 0.024375 0.01379
0.0417491 0.0207932 0.00752838
0.0365768 0.0231563 0.0102044
0.0199946 0.0233275 0.0126676
0.0312497 0.0231043 0.00995723
0.0421558 0.0220771 0.00841794
0.0401457 0.0149598 0.0101069
0.0213782 0.0213773 0.015288
0.041416 0.019109 0.00715918
0.0379318 0.0208 0.0153454
0.0622592 0.0198219 0.00579643
0.0336361 0.0148968 0.0125319
0.0362293 0.0223256 0.00876269
0.0358697 0.0213505 0.00789673
0.0273539 0.015339 0.0136293
0.0371741 0.0231375 0.012914
0.02123 0.0157694 0.014502
0.0423967 0.0228625 0.00953588
0.0207641 0.023488 0.0118238
0.0293734 0.0189046 0.00718157
0.0325133 0.0184716 0.015745
0.0250492 0.0214577 0.0160551
0.032993 0.0165175 0.0149621
0.0232047 0.0182653 0.00731586
0.0178573 0.0211526 0.00772426
0.0203063 0.019759 0.015889
0.0390573 0.0162704 0.0147578
0.0288888 0.0170107 0.00766755
0.00197664 0.0139506 0.0435188
0.0193534 0.0234931 0.0136804
0.0148602 0.0094107 0.0296396
0.0910328 0.0189119 0.00581756
0.0205894 0.014051 0.0132137
0.0180359 0.0143129 0.0137366
0.0314358 0.0226464 0.0138348
0.0799952 0.0188016 0.0058611
0.0165505 0.0238194 0.0137261
0.0227746 0.0235096 0.0142757
0.0228643 0.0159581 0.0146892
0.0610293 0.0200237 0.00583703
0.0302212 0.0223322 0.00866677
0.0196246 0.0140108 0.0129525
0.0408962 0.0170572 0.00766852
0.0353777 0.0190267 0.00729289
0.0256107 0.0220949 0.0144186
0.0379095 0.0187726 0.00571644
0.0214589 0.0148821 0.0137713
0.0188974 0.0234297 0.0114367
0.0244847 0.0230351 0.0098277
0.03395 0.0148406 0.0112996
0.0299432 0.0214738 0.00786784
0.0287116 0.0161821 0.00827679
0.0173882 0.0146207 0.0120254
0.0133546 0.00211829 0.0435188
0.0346194 0.015892 0.00857884
0.0187919 0.0184399 0.0167207
0.0935581 0.0183371 0.00588747
0.0208529 0.0224672 0.0143624
0.118145 0.0201427 0.00585321
0.0368812 0.0233809 0.0113262
0.0224521 0.0149935 0.0133754
0.031836 0.0212355 0.0151436
0.0198088 0.0234331 0.0115563
0.0327061 0.0174629 0.015481
0.0216638 0.0147825 0.0127977
0.0195537 0.0226564 0.0141816
0.0380868 0.0202693 0.0156574
0.0210094 0.0233238 0.0127717
0.0395735 0.0149681 0.0127587
0.0185893 0.0140045 0.0129629
0.0186395 0.0231925 0.0104165
0.0351737 0.0180926 0.00728467
0.0257795 0.0228413 0.0134909
0.0250322 0.0220137 0.016555
0.0139198 0.0217713 0.0150183
0.0356746 0.0204896 0.00758947
0.018403 0.0241062 0.0130267
0.0267014 0.0173858 0.015346
0.00841998 0.0220148 0.0065957
0.0234291 0.0192174 0.00719692
0.0190905 0.0233934 0.012355
0.0194483 0.0241063 0.0129014
0.0332778 0.0154929 0.0139307
0.031129 0.0231989 0.0127687
0.0213799 0.0239711 0.0134375
0.0199989 0.0210602 0.0154725
0.0360989 0.0219399 0.00826221
0.0258227 0.0212372 0.0151612
0.0780892 0.0197976 0.00577259
0.0213357 0.0229652 0.0136422
0.0778211 0.0188379 0.00591496
0.0197566 0.0219651 0.0148746
0.0176823 0.0229573 0.0150246
0.0227919 0.0171078 0.00655212
0.0383755 0.0191344 0.0157274
0.0260444 0.0205173 0.015558
0.0306731 0.0233125 0.0106056
0.0341238 0.0149484 0.0103228
0.0316581 0.0220639 0.0145845
0.0297116 0.0205957 0.00748235
0.0169041 0.0233518 0.0145361
0.0173331 0.0240428 0.013148
0.0242749 0.0226367 0.00916067
0.00842114 0.0323835 0.0435188
0.0393412 0.0153661 0.0136267
0.0280198 0.0148153 0.0107586
0.0816322 0.0177621 0.00599233
0.0388831 0.0190336 0.00572799
0.0156504 0.0153328 0.0139355
0.022254 0.014435 0.0141809
0.0276586 0.014883 0.0124127
0.0624304 0.0176319 0.0060023
0.0203447 0.0230233 0.0137027
0.0320841 0.020257 0.0156096
0.0204346 0.024103 0.0130025
0.0164011 0.0104012 0.0674441
0.0188143 0.0243346 0.0139091
0.0323546 0.0193215 0.0158219

VERTICES 136 272
1 0
1 1
1 2
1 3
1 4
1 5
1 6
1 7
1 8
1 9
1 10
1 11
1 12
1 13
1 14
1 15
1 16
1 17
1 18
1 19
1 20
1 21
1 22
1 23
1 24
1 25
1 26
1 27
1 28
1 29
1 30
1 31
1 32
1 33
1 34
1 35
1 36
1 37
1 38
1 39
1 40
1 41
1 42
1 43
1 44
1 45
1 46
1 47
1 48
1 49
1 50
1 51
1 52
1 53
1 54
1 55
1 56
1 57
1 58
1 59
1 60
1 61
1 62
1 63
1 64
1 65
1 66
1 67
1 68
1 69
1 70
1 71
1 72
1 73
1 74
1 75
1 76
1 77
1 78
1 79
1 80
1 81
1 82
1 83
1 84
1 85
1 86
1 87
1 88
1 89
1 90
1 91
1 92
1 93
1 94
1 95
1 96
1 97
1 98
1 99
1 100
1 101
1 102
1 103
1 104
1 105
1 106
1 107
1 108
1 109
1 110
1 111
1 112
1 113
1 114
1 115
1 116
1 117
1 118
1 119
1 120
1 121
1 122
1 123
1 124
1 125
1 126
1 127
1 128
1 129
1 130
1 131
1 132
1 133
1 134
1 135

POINT_DATA 136
SCALARS id int 1
LOOKUP_TABLE default
1
8
9
11
14
15
16
18
19
21
22
23
26
32
33
38
40
41
44
45
47
48
50
53
54
55
59
61
62
63
67
77
80
82
83
85
88
93
95
99
101
102
103
105
106
108
112
116
119
123
125
127
128
135
136
137
138
141
143
144
145
155
158
162
164
166
172
177
180
181
187
190
191
195
197
199
204
205
209
212
213
221
224
225
226
227
229
230
234
235
242
244
249
250
252
253
255
256
257
260
265
266
268
270
271
275
278
283
284
285
291
294
297
298
300
301
303
304
307
312
314
315
316
318
320
322
325
326
328
329
331
333
335
337
338
340

SCALARS type int 1
LOOKUP_TABLE default
1
1
1
1
1
1
1
1
1
1
1
1
1
1
1
1
1
1
1
1
1
1
1
1
1
1
1
1
1
1
1
1
1
1
1
1
1
1
1
1
1
1
1
1
1
1
1
1
1
1
1
1
1
1
1
1
1
1
1
1
1
1
1
1
1
1
1
1
1
1
1
1
1
1
1
1
1
1
1
1
1
1
1
1
1
1
1
1
1
1
1
1
1
1
1
1
1
1
1
1
1
1
1
1
1
1
1
1
1
1
1
1
1
1
1
1
1
1
1
1
1
1
1
1
1
1
1
1
1
1
1
1
1
1
1
1

SCALARS radius float 1
LOOKUP_TABLE default
0.0005
0.0005
0.0005
0.0005
0.0005
0.0005
0.0005
0.0005
0.0005
0.0005
0.0005
0.0005
0.0005
0.0005
0.0005
0.0005
0.0005
0.0005
0.0005
0.0005
0.0005
0.0005
0.0005
0.0005
0.0005
0.0005
0.0005
0.0005
0.0005
0.0005
0.0005
0.0005
0.0005
0.0005
0.0005
0.0005
0.0005
0.0005
0.0005
0.0005
0.0005
0.0005
0.0005
0.0005
0.0005
0.0005
0.0005
0.0005
0.0005
0.0005
0.0005
0.0005
0.0005
0.0005
0.0005
0.0005
0.0005
0.0005
0.0005
0.0005
0.0005
0.0005
0.0005
0.0005
0.0005
0.0005
0.0005
0.0005
0.0005
0.0005
0.0005
0.0005
0.0005
0.0005
0.0005
0.0005
0.0005
0.0005
0.0005
0.0005
0.0005
0.0005
0.0005
0.0005
0.0005
0.0005
0.0005
0.0005
0.0005
0.0005
0.0005
0.0005
0.0005
0.0005
0.0005
0.0005
0.0005
0.0005
0.0005
0.0005
0.0005
0.0005
0.0005
0.0005
0.0005
0.0005
0.0005
0.0005
0.0005
0.0005
0.0005
0.0005
0.0005
0.0005
0.0005
0.0005
0.0005
0.0005
0.0005
0.0005
0.0005
0.0005
0.0005
0.0005
0.0005
0.0005
0.0005
0.0005
0.0005
0.0005
0.0005
0.0005
0.0005
0.0005
0.0005
0.0005

SCALARS mass float 1
LOOKUP_TABLE default
1.46608e-07
1.46608e-07
1.46608e-07
1.46608e-07
1.46608e-07
1.46608e-07
1.46608e-07
1.46608e-07
1.46608e-07
1.46608e-07
1.46608e-07
1.46608e-07
1.46608e-07
1.46608e-07
1.46608e-07
1.46608e-07
1.46608e-07
1.46608e-07
1.46608e-07
1.46608e-07
1.46608e-07
1.46608e-07
1.46608e-07
1.46608e-07
1.46608e-07
1.46608e-07
1.46608e-07
1.46608e-07
1.46608e-07
1.46608e-07
1.46608e-07
1.46608e-07
1.46608e-07
1.46608e-07
1.46608e-07
1.46608e-07
1.46608e-07
1.46608e-07
1.46608e-07
1.46608e-07
1.46608e-07
1.46608e-07
1.46608e-07
1.46608e-07
1.46608e-07
1.46608e-07
1.46608e-07
1.46608e-07
1.46608e-07
1.46608e-07
1.46608e-07
1.46608e-07
1.46608e-07
1.46608e-07
1.46608e-07
1.46608e-07
1.46608e-07
1.46608e-07
1.46608e-07
1.46608e-07
1.46608e-07
1.46608e-07
1.46608e-07
1.46608e-07
1.46608e-07
1.46608e-07
1.46608e-07
1.46608e-07
1.46608e-07
1.46608e-07
1.46608e-07
1.46608e-07
1.46608e-07
1.46608e-07
1.46608e-07
1.46608e-07
1.46608e-07
1.46608e-07
1.46608e-07
1.46608e-07
1.46608e-07
1.46608e-07
1.46608e-07
1.46608e-07
1.46608e-07
1.46608e-07
1.46608e-07
1.46608e-07
1.46608e-07
1.46608e-07
1.46608e-07
1.46608e-07
1.46608e-07
1.46608e-07
1.46608e-07
1.46608e-07
1.46608e-07
1.46608e-07
1.46608e-07
1.46608e-07
1.46608e-07
1.46608e-07
1.46608e-07
1.46608e-07
1.46608e-07
1.46608e-07
1.46608e-07
1.46608e-07
1.46608e-07
1.46608e-07
1.46608e-07
1.46608e-07
1.46608e-07
1.46608e-07
1.46608e-07
1.46608e-07
1.46608e-07
1.46608e-07
1.46608e-07
1.46608e-07
1.46608e-07
1.46608e-07
1.46608e-07
1.46608e-07
1.46608e-07
1.46608e-07
1.46608e-07
1.46608e-07
1.46608e-07
1.46608e-07
1.46608e-07
1.46608e-07
1.46608e-07
1.46608e-07
1.46608e-07
1.46608e-07

VECTORS velocity float
0.00131135 -0.00994381 -0.0194639
0.000104743 -0.0148879 0.0206892
0.0113347 0.0240507 -0.0654325
4.49252e-15 2.51209e-14 1.72927e-13
0.00243782 0.0263623 0.00753618
0.000149376 -4.38331e-05 0.0252749
1.07969e-05 -0.0216478 -0.01361
0.0047028 0.00846494 0.000570353
-0.000612223 -0.025754 0.00425063
0.00145687 0.0143201 0.0102181
0.00488857 0.0029398 0.00243045
-5.56492e-15 1.15975e-14 1.42545e-13
-0.00103897 -0.00167473 -0.0018615
0.00214373 0.000727924 0.0208349
0.000792051 -0.018071 0.00484608
8.83847e-15 -2.32617e-14 1.89572e-13
0.0417511 0.121637 -0.138697
0.00396849 0.00261637 0.00383505
4.38706e-06 0.000163072 0.000742223
0.000471159 -0.019461 -0.00954069
0.000599277 -0.00787622 -0.0212553
0.000230441 0.00515058 -0.0153961
0.000287941 -0.00842781 -0.0226372
0.00162149 -0.0135275 -0.0115949
0.000437502 -0.00421775 0.0108245
0.0503547 -0.00388946 0.00385718
0.00016773 -0.0248659 -0.00105393
0.00381352 0.0114598 -0.00748377
-5.03801e-15 -6.77971e-14 1.88024e-13
0.00150572 0.00471167 0.0169146
0.0024815 -0.00567593 -0.00969119
0.00204394 -0.0170806 -0.00776508
-0.000437315 0.0110201 0.0233798
0.000557967 0.00813395 -0.0228271
0.0026053 0.00718675 0.0134731
5.10581e-06 -0.0108738 -0.0233382
-0.00025673 0.00112791 -0.000911949
0.00130391 -0.0210678 9.86524e-05
0.000302485 0.0155193 0.00317435
-0.00287035 0.00441399 -0.00241001
0.00125342 0.0173883 0.0120354
0.000194912 -0.0248888 0.00447419
0.000787209 -0.0203175 -0.0109257
0.0108555 -0.0136122 0.00372365
4.1542e-05 0.0185563 0.0175736
0.0010607 -0.0187419 0.00917036
-9.69236e-317 -9.6912e-317 3.10717e-12
0.00270929 -0.000205197 0.00154675
0.0856742 0.0203841 -0.104093
-1.02346e-14 1.48966e-14 1.99443e-13
-0.000489113 -0.000458953 0.000818953
-0.0191328 -0.00435771 -0.0114555
0.0011279 0.012218 -0.0191683
1.5235e-14 5.19e-14 2.19685e-13
0.000347308 -0.000241117 0.00113702
-0.0118732 0.00457853 -0.00561402
0.00414354 0.00365075 0.00300153
-4.90505e-15 -6.78105e-14 1.88022e-13
0.000232208 -0.0158888 -0.018135
-3.76825e-05 -0.000145217 0.000232685
0.000149633 -0.0236219 0.0106752
5.95512e-05 -0.0257713 -0.0019037
0.000133127 0.0174949 -0.0182342
1.83331e-20 1.45333e-21 1.8267e-20
0.00486653 0.00171495 0.00336712
0.00211978 -0.00248275 -0.01652
0.000579897 -0.00625098 -0.0136295
-0.000219691 -0.00265038 0.0255934
0.0046376 -0.00642051 -0.00620559
0.000177068 -0.019093 0.0162537
0.00195939 -0.00105253 0.0015918
6.31946e-89 3.92644e-89 1.79684e-12
0.000153616 -0.0168797 0.0186638
-4.61395e-09 0.0288622 0.00342142
1.05983e-14 1.8956e-14 2.48644e-13
-0.00138985 0.00361696 -0.00632816
-1.1064e-15 -1.75121e-14 8.40188e-14
0.000268089 -0.000460238 -0.0254316
0.00500695 0.00166143 0.00336502
0.000140941 0.0229582 -0.0126686
0.00114999 -0.00046834 -0.00496951
0.000211108 0.0228517 0.00882133
0.0051298 0.00143182 0.00349729
0.00548333 -0.0028826 -0.00476116
0.00296244 0.00754126 0.00106869
0.00251927 0.000863721 -0.00173162
-0.000240529 0.00379008 0.0239921
-0.00115333 0.000265688 -0.000440518
0.00389424 -0.00302339 -0.0118484
0.000631012 -0.0207644 0.00200321
9.96528e-05 0.0146268 -0.0215498
-0.000507493 0.00114707 -0.000528949
0.000516451 0.0500903 -0.0371355
0.000891245 -0.0225995 -0.00737279
-1.64928e-05 0.000944534 -0.000467052
0.0022547 0.0255929 0.00793129
5.72208e-15 -2.44724e-14 6.92159e-14
0.000610047 -0.0224135 -0.000275297
0.00233957 0.00543416 -0.0157784
-0.00126434 -0.000887138 0.00164814
0.000127206 0.013419 0.0221346
0.000521235 0.00753893 -0.0199247
9.27053e-05 7.35306e-05 0.000201792
6.73288e-06 0.0232775 -0.0118353
0.00490264 -0.00485282 -0.00608686
0.00121959 0.0172805 -0.0120355
2.40536e-15 -4.18118e-14 1.54367e-13
0.00499208 0.00307983 -0.00302039
5.21466e-15 -3.12769e-14 -1.20225e-13
0.00845669 -0.00729021 0.00118046
0.0242178 0.0148661 -0.0148373
2.64805e-14 -5.64324e-14 -2.04449e-13
0.002322 0.0177927 0.000915924
0.00218259 0.0168666 -0.00531913
0.000728764 -0.00363989 -0.0230156
0.000437775 -0.00569611 0.0231015
0.00186569 0.00437798 -0.00672681
0.000874664 -0.0147959 -0.00529015
0.00956388 0.00260279 -0.0013438
-0.000317431 0.000461083 -0.000362493
0.00360125 -0.00804778 -0.0102578
-9.72922e-317 -9.70169e-317 -1.69736e-12
0.000768636 0.0115202 0.0176037
0.000152421 -0.00741549 0.0251021
1.53284e-14 5.18564e-14 2.19689e-13
4.33355e-16 -2.0197e-15 1.00264e-14
0.0311572 0.0032925 0.00523377
0.00473886 0.00106461 0.00284423
0.000320257 0.00593088 0.023552
5.82829e-15 1.42772e-14 1.12906e-13
0.0044774 0.00209343 -0.00378369
0.000262871 0.022452 -0.00714178
-0.000898744 -0.000747099 -0.00436945
-0.0677828 -0.149762 0.238024
0.000112889 0.000160042 -0.000325057
0.00166646 0.014208 -0.000387248

VECTORS force float
-1.51355e-08 4.32627e-08 1.55292e-07
-6.22801e-09 8.02624e-09 8.94767e-09
0.0 0.0 -1.43822e-06
1.32349e-23 -1.61466e-21 2.11758e-22
-3.36567e-08 -7.45401e-08 3.35266e-08
-5.6331e-10 1.39818e-08 6.66303e-09
-7.93733e-10 -1.00065e-08 1.16167e-08
6.74903e-09 -3.93756e-08 -3.96707e-08
2.3253e-08 2.99397e-08 -2.0655e-08
-9.26462e-06 2.90083e-05 1.45339e-05
-1.99938e-07 6.29953e-08 -2.1259e-07
-2.39882e-20 -1.35089e-19 1.01644e-20
-7.03454e-08 -3.5025e-08 2.51216e-08
-4.32287e-08 -4.07256e-08 3.33305e-08
-7.12119e-09 -3.70629e-08 3.16541e-08
4.36129e-19 4.43104e-20 -1.79995e-20
0.0 0.0 -1.43822e-06
7.14494e-08 -2.1357e-08 1.84723e-08
-2.65754e-06 -2.78041e-07 8.24622e-06
1.77634e-09 5.55249e-08 8.35495e-08
-5.69838e-09 -2.01783e-08 -1.35442e-08
2.27502e-07 4.15379e-08 8.31997e-07
-7.51065e-08 2.86664e-07 6.75838e-07
4.02345e-07 -4.04774e-07 -1.04976e-06
2.44627e-05 6.53054e-06 -1.84759e-05
-5.78498e-07 8.53245e-07 -5.30321e-07
4.12384e-09 6.82362e-09 1.67818e-08
-5.60342e-09 1.22292e-09 4.48995e-09
-2.85589e-19 1.00056e-20 -3.38813e-21
-4.45305e-09 1.09938e-08 -3.56299e-08
-3.41821e-10 1.97234e-07 2.11429e-07
-2.62734e-10 2.62802e-08 3.09594e-08
7.78069e-09 1.75433e-08 -3.34337e-09
-8.67995e-09 -4.94851e-09 -2.46722e-08
0.0 0.0 -1.43822e-06
-1.36543e-09 -1.67341e-08 1.05427e-09
-2.28718e-08 8.93429e-08 -8.10975e-08
1.85448e-09 1.50496e-08 1.70457e-08
-6.26967e-06 5.29128e-06 5.10518e-07
-2.13766e-08 2.64927e-08 -7.28831e-09
-1.61376e-07 2.68829e-06 1.87213e-06
-1.46189e-07 -1.69596e-07 9.10093e-08
-2.76072e-09 -1.4414e-08 1.4152e-08
-2.26532e-07 9.65509e-07 -1.41713e-07
3.30207e-08 -7.97494e-08 -9.41449e-08
-8.57107e-10 4.96656e-09 1.60659e-08
0.0 0.0 0.0
2.90861e-06 -1.45691e-05 6.33413e-06
5.2207e-08 4.30076e-07 -9.36644e-07
-7.38507e-21 2.34258e-21 -6.35275e-22
-1.81021e-08 -1.76693e-08 3.18465e-08
-4.87029e-08 -8.54978e-08 -6.70997e-08
2.18912e-07 -3.1063e-07 6.08532e-07
-2.75378e-19 2.1864e-20 1.01644e-20
-9.72704e-08 -1.96719e-07 -4.74661e-08
4.19315e-07 -1.32777e-07 2.88919e-07
-1.93901e-07 -1.3711e-08 -3.14336e-08
2.44316e-20 -6.35275e-22 2.11758e-22
-1.25028e-09 -1.82643e-08 2.41957e-09
-1.61997e-09 -2.57298e-08 5.45422e-08
-2.48405e-09 2.24888e-09 1.52293e-08
1.48868e-09 3.59894e-09 1.80144e-08
-7.52118e-10 -5.19761e-09 -1.5727e-08
0.0 0.0 0.0
2.16247e-07 1.9706e-08 -4.49159e-08
-3.84144e-09 -7.61798e-08 1.87147e-07
5.53952e-08 -4.63672e-08 -5.88445e-09
5.21207e-09 1.48327e-08 9.57367e-09
-3.58189e-06 1.92085e-06 2.54133e-07
-8.02739e-10 5.16138e-09 1.49526e-08
-2.70032e-08 1.28167e-07 -3.56168e-07
1.85167e-92 1.15049e-92 0.0
1.38748e-10 9.94944e-09 1.27021e-08
-2.36186e-14 2.7855e-09 -2.31214e-08
-2.5808e-21 4.47339e-21 -2.11758e-22
-1.64708e-06 1.22981e-06 4.8327e-07
1.70399e-21 2.22346e-21 4.23516e-22
-1.39506e-09 -1.74453e-08 -7.69129e-09
-1.85134e-07 4.71372e-07 3.17764e-07
-5.84028e-10 -4.2601e-09 -1.49474e-08
4.81726e-08 -1.51441e-07 -1.44554e-06
-8.97255e-10 1.22229e-08 -1.10066e-08
5.60666e-08 1.43579e-07 -4.65411e-08
6.92593e-06 -1.41394e-05 1.68012e-05
-6.4644e-09 -6.05227e-08 1.15209e-08
-1.61737e-06 -1.17023e-06 -2.04458e-06
-3.71175e-09 1.5141e-08 -5.15108e-10
6.04787e-09 -2.08186e-08 3.45676e-08
5.79229e-08 1.66251e-07 3.50756e-07
7.23281e-09 2.60305e-08 2.33213e-08
1.00326e-10 -1.07717e-08 -6.9674e-09
-6.6226e-09 6.0572e-09 -1.83878e-09
-2.88607e-09 1.91403e-07 -2.4492e-07
-9.71148e-09 -1.73071e-08 8.85018e-09
-3.28744e-10 1.45126e-08 -9.02871e-09
4.86712e-08 7.18407e-08 -3.36391e-09
1.59017e-19 1.41349e-20 -4.23516e-22
1.69148e-08 -6.41542e-09 2.85722e-08
4.23034e-07 2.41056e-07 9.29658e-07
-6.32655e-07 -1.94713e-06 4.47857e-06
1.37533e-09 1.29003e-08 -6.80917e-09
4.57881e-08 2.25502e-07 -6.16968e-07
-7.4271e-08 6.0831e-08 2.12454e-07
-2.15386e-09 2.59601e-08 -3.56975e-08
-1.64897e-08 1.91701e-07 8.09214e-08
-2.51498e-09 3.721e-10 -1.73984e-08
-1.33672e-21 5.29396e-23 0.0
-1.17585e-06 -3.46857e-06 -5.73291e-06
-2.34919e-21 -3.17637e-22 -2.11758e-22
4.29476e-06 -7.20279e-06 1.95784e-06
-4.5296e-08 1.97295e-07 -2.65329e-07
1.77877e-20 -2.75286e-21 2.75286e-21
8.62087e-09 -3.67525e-08 -6.97408e-09
-1.64914e-10 -2.42227e-08 1.42273e-08
3.08368e-07 2.16169e-07 1.24947e-06
-3.02081e-09 1.30244e-08 9.88661e-09
-8.75576e-07 2.31198e-06 -2.08314e-06
1.22803e-06 -5.01251e-07 1.16813e-07
-7.25466e-08 3.44553e-08 -3.73061e-08
-8.56009e-08 2.23241e-08 -1.54636e-08
-2.32987e-07 -2.51674e-07 -3.61919e-07
0.0 0.0 0.0
-2.09544e-08 3.42028e-08 3.0444e-08
2.53764e-08 2.1891e-08 -1.55226e-07
1.08261e-20 -5.13514e-21 6.35275e-22
-3.18253e-19 -3.77988e-20 5.71747e-21
-2.51191e-06 1.92314e-06 1.76197e-06
2.81844e-08 -4.13494e-08 -6.83959e-08
-9.91322e-10 1.63964e-08 4.57943e-09
5.12587e-20 -1.73642e-20 -4.23516e-22
-1.07126e-06 -1.34514e-05 7.7753e-06
-3.50859e-06 5.17028e-06 -1.05676e-06
-9.88131e-08 3.43706e-07 5.72941e-07
0.0 0.0 -1.43822e-06
1.75973e-09 2.1784e-09 -5.7571e-09
2.0335e-06 -6.14987e-06 1.83201e-06
