# vtk DataFile Version 3.0
LIGGGHTS particles timestep 11000000
ASCII
DATASET POLYDATA
POINTS 153 float
0.0274811 0.0163682 0.014795
0.021418 0.0167397 0.0157186
0.0363854 0.0212252 0.00785876
0.018179 0.0142451 0.0125636
0.0469582 0.0173732 0.0061601
0.0342355 0.0148181 0.0121652
0.0356237 0.0180933 0.00727858
0.015996 0.0173705 0.0157394
0.0337525 0.0156807 0.0141661
0.0263303 0.0213378 0.0149901
0.0210982 0.0234485 0.0121264
0.0165529 0.0152568 0.0138128
0.0216406 0.0238441 0.0135187
0.0210216 0.0141056 0.0133949
0.0199151 0.0241107 0.0142505
0.0179481 0.0148717 0.0133078
0.0367403 0.0223309 0.00876986
0.154353 0.0180393 0.00580707
0.0216051 0.0140384 0.0142225
0.0171737 0.0143624 0.0128632
0.0203692 0.0233146 0.0127388
0.0383028 0.0214872 0.0148231
0.0325543 0.0203316 0.0155252
0.0211998 0.0178502 0.0158529
0.0262743 0.0231836 0.0128064
0.0384543 0.0208332 0.0153355
0.03599 0.01954 0.00739332
0.0192411 0.0143581 0.0138908
0.0371123 0.0232011 0.0103649
0.0331146 0.0181171 0.0156528
0.0622592 0.0198219 0.00579643
0.0303007 0.0209228 0.00759589
0.0322865 0.0215626 0.0149706
0.0318722 0.0227726 0.0136169
0.020211 0.024213 0.0131544
0.0220598 0.0223316 0.0145232
0.0329165 0.0189206 0.0158005
0.0207919 0.0232895 0.0138288
0.0386317 0.0201175 0.0156662
0.0173845 0.0157204 0.0144402
0.0265086 0.0227191 0.0136474
0.02929 0.0164572 0.00802938
0.0172241 0.0240349 0.0131493
0.0297905 0.0186952 0.00719001
0.0231141 0.0177588 0.0157522
0.0204486 0.0236939 0.0150718
0.0215148 0.0200182 0.0158744
0.0344496 0.0148026 0.0112285
0.0258731 0.0224997 0.0139842
0.00197664 0.0139506 0.0435188
0.018563 0.0237468 0.0139018
0.020158 0.0234702 0.0117648
0.0192477 0.023327 0.0109161
0.0910328 0.0189119 0.00581756
0.020947 0.0191994 0.0159652
0.023768 0.0152104 0.0151229
0.0281011 0.0149421 0.0125802
0.0162865 0.0234645 0.0150324
0.0799952 0.0188016 0.0058611
0.0166405 0.0161932 0.0149126
0.0153741 0.0234001 0.0146039
0.024437 0.0158023 0.0156016
0.0606279 0.0189338 0.00587999
0.0271679 0.0178012 0.0155728
0.0217008 0.0228845 0.0137717
0.0365507 0.0218817 0.00822644
0.0232364 0.0162839 0.00820001
0.0225122 0.0236 0.0141331
0.0314162 0.0233819 0.011641
0.0187418 0.0222536 0.00876161
0.0219829 0.0151686 0.0140829
0.0238707 0.0226891 0.0152811
0.015446 0.0161322 0.0159514
0.0180133 0.0150318 0.0148013
0.0172776 0.0146948 0.0142138
0.0234499 0.0171477 0.00760784
0.0304812 0.0216483 0.00801536
0.0190892 0.0140006 0.0129693
0.026802 0.019374 0.015806
0.0255973 0.0233234 0.0123494
0.0202629 0.0220236 0.0148533
0.0200854 0.0140175 0.0130538
0.0309627 0.0229086 0.00950212
0.0174864 0.0146248 0.0119505
0.0935581 0.0183371 0.00588747
0.0171263 0.0235119 0.0142455
0.118145 0.0201427 0.00585321
0.0327602 0.0195409 0.0157967
0.0222881 0.0215891 0.01516
0.0287241 0.0150173 0.0100765
0.0161595 0.0236916 0.014058
0.0163009 0.0148447 0.0129372
0.0294722 0.0172278 0.00757016
0.0191714 0.0242788 0.0132592
0.023531 0.0161491 0.014873
0.0334351 0.0166158 0.0150353
0.0222805 0.0231607 0.015038
0.0353365 0.0166484 0.00794023
0.0158105 0.0146444 0.0140915
0.0166006 0.0142026 0.0136668
0.0141525 0.0223668 0.0144836
0.0311817 0.0233107 0.0106574
0.0224948 0.0166462 0.0152495
0.0208425 0.0242865 0.0139203
0.0226904 0.0156569 0.0150986
0.0316328 0.0232531 0.0125698
0.0149323 0.0227451 0.0139905
0.0224977 0.0206967 0.0156297
0.00841998 0.0220148 0.0065957
0.0204958 0.0211537 0.0154178
0.0215368 0.0209707 0.0155581
0.0139818 0.0200851 0.0166988
0.0300498 0.0197317 0.00724609
0.02789 0.0153988 0.0136322
0.0215769 0.0236116 0.0144892
0.0200632 0.0228968 0.0143896
0.0216196 0.0159532 0.0151093
0.0320647 0.0222722 0.014395
0.0183161 0.0143062 0.0154191
0.0780892 0.0197976 0.00577259
0.0220674 0.014912 0.012947
0.0229679 0.0149162 0.0141625
0.0778211 0.0188379 0.00591496
0.0232244 0.0231946 0.0147097
0.0156535 0.0160665 0.0148132
0.0227919 0.0171078 0.00655212
0.0210114 0.0224775 0.0143702
0.020252 0.0143888 0.0139673
0.0340137 0.0150561 0.013028
0.0212419 0.0217792 0.0150483
0.0277142 0.0157647 0.0142594
0.0307497 0.022366 0.00873641
0.0283661 0.0147575 0.0115127
0.0265312 0.0206207 0.015547
0.0198409 0.0234005 0.0135504
0.0195958 0.0238512 0.0124611
0.0220686 0.0183372 0.0159245
0.00842114 0.0323835 0.0435188
0.0348006 0.0151943 0.00954834
0.0245466 0.0217836 0.00832831
0.0816322 0.0177621 0.00599233
0.0388763 0.0190285 0.00572726
0.017736 0.0184389 0.00724064
0.0191991 0.0233613 0.014602
0.0239878 0.0194015 0.00719794
0.0615113 0.0173493 0.00607362
0.022899 0.0188917 0.0159395
0.0289267 0.0154388 0.0091441
0.0159291 0.0227215 0.0140039
0.0176715 0.0243133 0.0139994
0.0184455 0.0137521 0.013693
0.0182186 0.0240909 0.0130201
0.0290803 0.0158534 0.0086003

VERTICES 153 306
1 0
1 1
1 2
1 3
1 4
1 5
1 6
1 7
1 8
1 9
1 10
1 11
1 12
1 13
1 14
1 15
1 16
1 17
1 18
1 19
1 20
1 21
1 22
1 23
1 24
1 25
1 26
1 27
1 28
1 29
1 30
1 31
1 32
1 33
1 34
1 35
1 36
1 37
1 38
1 39
1 40
1 41
1 42
1 43
1 44
1 45
1 46
1 47
1 48
1 49
1 50
1 51
1 52
1 53
1 54
1 55
1 56
1 57
1 58
1 59
1 60
1 61
1 62
1 63
1 64
1 65
1 66
1 67
1 68
1 69
1 70
1 71
1 72
1 73
1 74
1 75
1 76
1 77
1 78
1 79
1 80
1 81
1 82
1 83
1 84
1 85
1 86
1 87
1 88
1 89
1 90
1 91
1 92
1 93
1 94
1 95
1 96
1 97
1 98
1 99
1 100
1 101
1 102
1 103
1 104
1 105
1 106
1 107
1 108
1 109
1 110
1 111
1 112
1 113
1 114
1 115
1 116
1 117
1 118
1 119
1 120
1 121
1 122
1 123
1 124
1 125
1 126
1 127
1 128
1 129
1 130
1 131
1 132
1 133
1 134
1 135
1 136
1 137
1 138
1 139
1 140
1 141
1 142
1 143
1 144
1 145
1 146
1 147
1 148
1 149
1 150
1 151
1 152

POINT_DATA 153
SCALARS id int 1
LOOKUP_TABLE default
1
5
8
9
11
14
15
16
18
19
21
22
23
26
30
32
33
38
40
41
44
45
47
48
50
53
54
55
59
61
62
63
67
77
79
80
82
83
85
88
93
95
99
101
102
103
105
106
108
112
114
116
119
123
125
127
128
134
135
136
137
138
141
143
144
145
150
152
155
158
159
162
164
166
172
176
177
178
180
181
187
190
191
195
197
199
204
205
209
212
213
219
221
224
225
226
227
229
230
233
234
235
242
244
249
250
252
253
255
256
257
260
265
266
267
268
270
271
275
278
281
283
284
285
291
294
295
296
297
298
300
301
303
304
307
312
314
315
316
318
320
322
325
326
328
329
331
333
334
335
337
338
340

SCALARS type int 1
LOOKUP_TABLE default
1
1
1
1
1
1
1
1
1
1
1
1
1
1
1
1
1
1
1
1
1
1
1
1
1
1
1
1
1
1
1
1
1
1
1
1
1
1
1
1
1
1
1
1
1
1
1
1
1
1
1
1
1
1
1
1
1
1
1
1
1
1
1
1
1
1
1
1
1
1
1
1
1
1
1
1
1
1
1
1
1
1
1
1
1
1
1
1
1
1
1
1
1
1
1
1
1
1
1
1
1
1
1
1
1
1
1
1
1
1
1
1
1
1
1
1
1
1
1
1
1
1
1
1
1
1
1
1
1
1
1
1
1
1
1
1
1
1
1
1
1
1
1
1
1
1
1
1
1
1
1
1
1

SCALARS radius float 1
LOOKUP_TABLE default
0.0005
0.0005
0.0005
0.0005
0.0005
0.0005
0.0005
0.0005
0.0005
0.0005
0.0005
0.0005
0.0005
0.0005
0.0005
0.0005
0.0005
0.0005
0.0005
0.0005
0.0005
0.0005
0.0005
0.0005
0.0005
0.0005
0.0005
0.0005
0.0005
0.0005
0.0005
0.0005
0.0005
0.0005
0.0005
0.0005
0.0005
0.0005
0.0005
0.0005
0.0005
0.0005
0.0005
0.0005
0.0005
0.0005
0.0005
0.0005
0.0005
0.0005
0.0005
0.0005
0.0005
0.0005
0.0005
0.0005
0.0005
0.0005
0.0005
0.0005
0.0005
0.0005
0.0005
0.0005
0.0005
0.0005
0.0005
0.0005
0.0005
0.0005
0.0005
0.0005
0.0005
0.0005
0.0005
0.0005
0.0005
0.0005
0.0005
0.0005
0.0005
0.0005
0.0005
0.0005
0.0005
0.0005
0.0005
0.0005
0.0005
0.0005
0.0005
0.0005
0.0005
0.0005
0.0005
0.0005
0.0005
0.0005
0.0005
0.0005
0.0005
0.0005
0.0005
0.0005
0.0005
0.0005
0.0005
0.0005
0.0005
0.0005
0.0005
0.0005
0.0005
0.0005
0.0005
0.0005
0.0005
0.0005
0.0005
0.0005
0.0005
0.0005
0.0005
0.0005
0.0005
0.0005
0.0005
0.0005
0.0005
0.0005
0.0005
0.0005
0.0005
0.0005
0.0005
0.0005
0.0005
0.0005
0.0005
0.0005
0.0005
0.0005
0.0005
0.0005
0.0005
0.0005
0.0005
0.0005
0.0005
0.0005
0.0005
0.0005
0.0005

SCALARS mass float 1
LOOKUP_TABLE default
1.46608e-07
1.46608e-07
1.46608e-07
1.46608e-07
1.46608e-07
1.46608e-07
1.46608e-07
1.46608e-07
1.46608e-07
1.46608e-07
1.46608e-07
1.46608e-07
1.46608e-07
1.46608e-07
1.46608e-07
1.46608e-07
1.46608e-07
1.46608e-07
1.46608e-07
1.46608e-07
1.46608e-07
1.46608e-07
1.46608e-07
1.46608e-07
1.46608e-07
1.46608e-07
1.46608e-07
1.46608e-07
1.46608e-07
1.46608e-07
1.46608e-07
1.46608e-07
1.46608e-07
1.46608e-07
1.46608e-07
1.46608e-07
1.46608e-07
1.46608e-07
1.46608e-07
1.46608e-07
1.46608e-07
1.46608e-07
1.46608e-07
1.46608e-07
1.46608e-07
1.46608e-07
1.46608e-07
1.46608e-07
1.46608e-07
1.46608e-07
1.46608e-07
1.46608e-07
1.46608e-07
1.46608e-07
1.46608e-07
1.46608e-07
1.46608e-07
1.46608e-07
1.46608e-07
1.46608e-07
1.46608e-07
1.46608e-07
1.46608e-07
1.46608e-07
1.46608e-07
1.46608e-07
1.46608e-07
1.46608e-07
1.46608e-07
1.46608e-07
1.46608e-07
1.46608e-07
1.46608e-07
1.46608e-07
1.46608e-07
1.46608e-07
1.46608e-07
1.46608e-07
1.46608e-07
1.46608e-07
1.46608e-07
1.46608e-07
1.46608e-07
1.46608e-07
1.46608e-07
1.46608e-07
1.46608e-07
1.46608e-07
1.46608e-07
1.46608e-07
1.46608e-07
1.46608e-07
1.46608e-07
1.46608e-07
1.46608e-07
1.46608e-07
1.46608e-07
1.46608e-07
1.46608e-07
1.46608e-07
1.46608e-07
1.46608e-07
1.46608e-07
1.46608e-07
1.46608e-07
1.46608e-07
1.46608e-07
1.46608e-07
1.46608e-07
1.46608e-07
1.46608e-07
1.46608e-07
1.46608e-07
1.46608e-07
1.46608e-07
1.46608e-07
1.46608e-07
1.46608e-07
1.46608e-07
1.46608e-07
1.46608e-07
1.46608e-07
1.46608e-07
1.46608e-07
1.46608e-07
1.46608e-07
1.46608e-07
1.46608e-07
1.46608e-07
1.46608e-07
1.46608e-07
1.46608e-07
1.46608e-07
1.46608e-07
1.46608e-07
1.46608e-07
1.46608e-07
1.46608e-07
1.46608e-07
1.46608e-07
1.46608e-07
1.46608e-07
1.46608e-07
1.46608e-07
1.46608e-07
1.46608e-07
1.46608e-07
1.46608e-07
1.46608e-07
1.46608e-07
1.46608e-07
1.46608e-07
1.46608e-07

VECTORS velocity float
0.00246324 0.0186713 0.0134912
0.00593593 -0.0258676 0.0522601
0.00210292 -0.0166434 -0.00806987
0.00605637 0.00124479 -0.00207359
4.49232e-15 2.51209e-14 1.72927e-13
0.000871898 0.00116601 0.014572
0.000927772 -0.020716 0.00240312
0.00537581 0.0185013 0.055226
0.000110097 0.014597 0.0218424
-0.000121345 0.0139838 -0.00994974
0.00425327 0.00166323 0.0133468
0.00241937 -0.000246243 -0.00065999
0.00476905 -0.015732 0.0016595
-4.00866e-05 0.000312599 -0.000538604
-0.000924672 0.0224882 0.000777732
0.00457854 0.0260387 -0.0234191
0.00525501 -0.00783092 -0.00753517
8.75258e-15 -2.34445e-14 1.89554e-13
-0.0246765 -0.019889 0.00714924
0.000608607 -0.000748396 0.00157146
0.00902884 -0.00130419 0.00475843
0.00313891 0.014179 -0.0103577
-0.000813158 0.0208735 -0.00739624
0.000177284 0.0260942 0.00667173
0.00372122 0.00831077 -0.0156298
0.00180494 0.0163682 -0.00911125
4.47918e-05 -0.0257926 -0.00403582
0.000604579 0.000105806 0.00149392
0.00160271 -0.00653502 -0.0193982
0.00455286 0.0696674 0.00837519
-4.98792e-15 -6.78151e-14 1.88019e-13
0.00287019 0.000331283 -0.00145986
0.000197806 0.0216811 -0.0137328
0.000342452 0.012336 -0.0211358
0.0138331 -0.00735818 -0.01503
0.00783375 -0.00239192 -0.00209625
0.0942735 -0.240419 1.18623
0.0153385 -0.0281086 0.0150227
0.00287583 0.01319 -0.000963612
-0.00625916 -0.0116129 -0.0120847
0.000924419 0.0149279 -0.0204278
0.000455647 -0.018378 0.0143814
-0.000164472 -0.000747083 0.000157951
0.00174916 -0.02062 0.00223568
7.68059e-11 0.02303 0.00711639
0.0327662 0.0308904 -0.0348137
0.0336321 0.0173689 0.0023147
0.00206282 -0.000584314 0.018934
9.26198e-05 0.0159389 -0.0201483
-9.69236e-317 -9.6912e-317 3.10717e-12
-0.00575287 -0.00709617 -0.00653615
0.00968889 -0.000800333 -0.000376262
0.0029426 -0.00313984 -0.0117842
-1.03409e-14 1.49006e-14 1.99436e-13
0.00835744 0.0664796 -0.00817056
-0.0106144 -0.00148421 -0.0163297
0.000228358 0.00655555 0.0238049
0.0150568 -0.0389463 0.0310349
1.5446e-14 5.19379e-14 2.19662e-13
0.00699533 -0.00760478 -0.00347224
0.00428849 0.0019744 -0.0016343
-0.00527944 -0.0063275 -0.00180881
5.36095e-15 2.34344e-14 1.67826e-13
-8.62844e-05 0.0240168 0.0103806
0.0155222 -0.0193912 0.0137174
0.00334725 -0.0101591 -0.00862191
0.000872717 -0.0176362 0.0148877
-0.00474769 0.00275508 -0.000678452
0.000823656 0.000986605 -0.0231716
-0.000180473 -0.0153029 -0.0207979
0.000665407 0.0147357 0.0241678
-0.00451445 0.00384123 -0.0026478
-0.0364964 -0.191787 -0.0313598
0.000415703 0.000570689 -0.000785274
0.000454132 0.000148269 -0.000601652
0.00032993 -0.0227443 0.0100536
0.00191469 -0.00971478 -0.00713187
0.000306431 -0.00124027 0.00203969
0.000330734 0.0244074 -0.00174682
0.000740904 0.00333233 -0.0232847
0.00511356 -0.00345778 0.0069244
0.000655617 0.00140653 -0.00301915
0.00107789 -0.00946877 -0.0164005
0.00140134 -0.0010074 0.00181721
1.0612e-14 1.89579e-14 2.48643e-13
0.0120686 -0.00262043 0.00334019
-1.11702e-15 -1.75109e-14 8.40189e-14
-0.0261587 0.0435761 -0.0459004
0.00696141 0.00193619 -0.00332639
0.000143012 -0.00922411 0.0237019
-0.000716369 0.00146484 0.000687197
0.000682489 -0.000489021 -3.20296e-05
0.000430198 -0.0202373 0.00766001
0.000841689 -2.92543e-05 0.000272408
0.00281219 0.00852438 0.00852529
0.00125953 0.0151605 0.0112334
-0.00317069 0.00234962 0.000187636
0.00012033 -0.022418 0.0137961
0.00324303 0.00177565 0.00590063
-0.00056577 -0.000145599 0.00087638
0.00671763 -0.00161593 0.00202028
0.00144823 -0.00347093 -0.0214147
0.000524807 0.000846127 -0.00154713
0.00415473 -0.00512101 0.00569174
0.00554533 0.00413443 0.0091422
0.00212715 0.00725994 -0.0179403
0.00348285 0.00181539 -0.00160425
0.00159939 0.00824844 -0.00419184
5.72235e-15 -2.44747e-14 6.92153e-14
0.00831562 0.00120667 0.000504848
-0.0078518 0.00676084 0.0131476
-2.63998e-09 0.0287312 -0.00595744
0.000188265 -0.0249067 -0.0044455
0.0008883 0.00823066 0.0115255
-0.00275118 0.00298005 0.00113083
-0.0012642 -0.00780621 -0.00337604
-0.0141523 0.0446502 0.0840664
0.00107278 0.0146023 -0.0170035
0.000368187 0.000519451 -0.000822261
2.40672e-15 -4.18116e-14 1.54367e-13
0.0116782 -0.00322322 0.036768
0.0130356 0.0197261 -0.00942785
5.21473e-15 -3.1277e-14 -1.20225e-13
-0.00485911 0.00450394 -0.00309927
0.00465844 0.005341 0.00323247
2.64831e-14 -5.64315e-14 -2.04448e-13
-0.00136701 -0.000264944 0.00167651
-0.00221703 0.00461211 -0.00449677
0.000339958 0.00878035 0.0209249
-0.00790873 0.00546271 0.00754407
0.00295975 0.010712 0.0101551
0.000663796 -0.0156711 -0.0170115
0.00191402 -0.000455907 0.0172526
0.000766843 0.0119348 -0.00420398
0.00409211 -0.00376863 -0.0306921
0.012705 -0.00164498 0.0159394
0.000377188 0.0260454 0.00534405
-9.72922e-317 -9.70169e-317 -1.69736e-12
0.000623968 -0.00698907 0.0132437
0.000387949 -0.0191704 -0.0152885
1.53162e-14 5.18547e-14 2.1969e-13
1.54889e-15 -7.41586e-15 3.66661e-14
0.00063258 -0.0242145 0.00215877
-0.00250955 -0.00154816 0.000604882
0.002713 -0.0161492 -0.00041874
5.251e-15 2.34357e-14 1.67829e-13
1.47281e-05 0.0268655 0.000784522
0.00267591 -0.00795867 0.0160837
0.0032768 0.00492989 -0.00922735
0.00637929 0.00101927 -0.00325073
-0.000893835 -0.000246186 0.00127523
0.000687345 -0.00102108 0.000189181
0.00087334 -0.0150882 0.0135337

VECTORS force float
3.84823e-07 -4.2998e-07 1.61939e-07
0.0 0.0 -1.43822e-06
-1.69381e-06 -2.10218e-06 -1.00322e-06
6.60686e-08 3.7383e-08 -9.42652e-08
9.72764e-22 0.0 0.0
3.44018e-08 2.93168e-08 1.1246e-08
2.16141e-09 2.50491e-08 1.83642e-08
0.0 0.0 -1.43822e-06
1.29647e-09 1.11278e-08 -8.99893e-09
-4.02151e-07 1.76308e-07 4.10977e-07
-0.000159261 1.08023e-05 -0.000163901
-1.0998e-07 2.84381e-08 9.73225e-08
0.000102685 3.02991e-05 0.000136348
-2.50945e-08 1.80599e-07 -1.37859e-06
0.0 0.0 -1.43822e-06
-3.31967e-08 2.11677e-07 -5.54902e-07
-9.84422e-07 1.63305e-07 -5.43033e-06
5.64706e-19 1.01591e-19 -1.10114e-20
-6.63709e-07 3.65349e-05 1.34031e-05
-5.37342e-08 3.71555e-08 -5.03557e-08
-0.000173402 9.87509e-05 -0.000208484
1.1629e-08 -5.23715e-10 -1.56519e-08
-0.000132918 -0.000559574 5.32223e-06
2.0529e-07 -1.15231e-06 1.48013e-06
-7.95815e-06 -3.89469e-06 2.17487e-06
5.72482e-09 -1.6688e-09 -1.95371e-08
-1.82617e-10 -3.48236e-09 1.3897e-08
9.41345e-08 3.69732e-08 -1.78699e-08
-2.0804e-08 -2.73885e-08 -4.70198e-08
-0.000203284 -0.0016757 0.00703174
-5.66718e-20 9.74088e-21 1.90582e-21
6.05186e-07 5.00639e-07 2.84066e-07
5.95832e-10 -6.53386e-09 -1.33518e-08
-3.66498e-09 -4.25121e-09 -1.84736e-08
-1.87182e-05 0.000102887 -4.14583e-05
8.47272e-06 -3.68565e-05 6.24086e-06
0.0103598 -0.0306457 0.0484474
-0.000144378 -0.000114814 -2.95281e-05
-1.38412e-08 -5.5158e-08 1.92871e-08
-4.11821e-08 -1.26636e-07 -9.42445e-08
2.04137e-06 2.71206e-06 5.52963e-06
-8.16302e-10 1.05194e-08 2.21322e-08
1.06976e-07 2.44645e-08 -2.68234e-07
-1.64221e-08 -3.55035e-08 2.75848e-08
-1.67596e-14 5.68895e-09 -1.79701e-08
0.0 0.0 -1.43822e-06
0.0 0.0 -1.43822e-06
-8.8153e-10 -6.30976e-10 -3.31897e-08
8.8577e-08 2.75702e-07 -1.95574e-07
0.0 0.0 0.0
0.0 0.0 -1.43822e-06
-1.17061e-05 -3.80123e-05 -6.24602e-05
-3.63321e-06 -1.13131e-05 -2.19185e-05
-5.30719e-21 4.7778e-21 -4.23516e-22
0.0 0.0 -1.43822e-06
-2.21255e-07 -5.98434e-08 -3.13869e-07
-1.0673e-09 1.61762e-08 2.28884e-09
0.0 0.0 -1.43822e-06
6.51183e-19 -1.72636e-19 -3.17637e-21
1.71344e-08 -1.89091e-07 -9.06487e-08
-5.08713e-06 -3.56571e-06 -7.95147e-07
-4.19679e-08 -1.16947e-07 -6.00219e-09
1.35909e-19 -1.95082e-20 -1.05879e-21
-8.74968e-10 2.13042e-09 -1.17624e-08
3.68962e-05 0.000216936 -9.68369e-05
5.98355e-06 1.53375e-06 1.74123e-06
5.10333e-09 2.10272e-08 1.03668e-08
-7.26677e-08 3.75813e-08 -1.39786e-08
5.18646e-09 -1.29717e-08 8.8719e-09
1.3532e-10 -1.11111e-08 6.64179e-09
0.0 0.0 -1.43822e-06
1.58193e-06 -9.58523e-09 2.86296e-07
0.0 0.0 -1.43822e-06
-1.12818e-07 -6.74344e-08 -1.27181e-07
-1.43666e-08 -6.04351e-08 -8.55687e-08
1.20198e-08 1.21094e-07 -9.76446e-08
-2.13592e-07 -1.53648e-07 -1.81304e-07
9.55732e-08 -8.01165e-09 3.72563e-08
-1.11615e-09 6.17893e-09 -1.45487e-08
-3.39129e-07 -1.18121e-06 1.75325e-06
-7.47709e-06 -8.55717e-07 -7.06185e-07
3.2949e-08 -1.26718e-08 1.02564e-07
-2.546e-09 -6.57979e-08 -2.2209e-08
7.70925e-08 -3.53318e-09 -8.82227e-08
3.74812e-20 -3.78783e-20 1.27055e-21
2.45652e-07 9.73083e-08 -1.5288e-06
2.99142e-20 -1.53525e-21 0.0
-8.63264e-05 0.000466599 0.00825583
-2.15133e-07 1.219e-06 -6.22669e-07
-1.44446e-09 1.24371e-08 9.43303e-09
3.37604e-06 -7.28429e-06 4.55713e-06
-7.99096e-08 8.39794e-09 9.61295e-08
9.27707e-09 1.66546e-07 -2.36425e-08
-6.573e-09 1.30623e-08 -1.44309e-06
-1.69414e-07 -1.39067e-07 -1.05288e-07
2.70799e-09 -9.88044e-08 -6.2264e-08
3.39982e-06 -2.34051e-06 5.47354e-06
-8.96917e-10 3.24226e-09 1.74457e-08
-5.09418e-08 2.00491e-08 1.28849e-07
-2.43779e-08 -1.07191e-08 1.58342e-08
1.5366e-06 -3.22232e-06 3.24164e-06
7.57485e-09 -1.42727e-08 9.05438e-09
-7.57342e-09 -2.24552e-07 -1.34475e-07
4.43664e-06 -7.42134e-05 7.24245e-06
-4.23589e-07 -1.38334e-07 -1.08398e-06
1.9246e-08 -5.19706e-08 2.50308e-08
2.25591e-06 -1.89493e-06 8.04939e-07
1.82604e-09 5.6762e-07 -3.02702e-07
-3.68195e-20 -2.55698e-20 -8.25857e-21
-1.19635e-07 7.5354e-07 -4.15949e-07
0.0 0.0 -1.43822e-06
9.29035e-11 -4.99987e-09 -2.3007e-08
-8.18699e-10 -1.0835e-08 1.36604e-08
-1.34261e-06 5.50389e-06 9.41651e-06
-3.07842e-06 2.56248e-07 -4.96464e-06
-1.93719e-06 -4.72907e-06 4.87501e-06
2.76534e-07 -1.45176e-08 -1.51153e-06
-1.2172e-08 -8.17863e-10 -3.7424e-08
-3.57873e-08 6.15097e-08 -1.50794e-07
1.68745e-22 1.58819e-22 0.0
4.54367e-05 3.64307e-05 -9.94445e-06
0.0 0.0 -1.43822e-06
-7.67624e-22 -2.11758e-22 -2.11758e-22
-1.43358e-06 -5.79526e-07 -1.42696e-06
6.476e-08 -1.38951e-07 -3.05515e-07
-2.11758e-21 -8.47033e-22 0.0
2.29073e-06 -1.65414e-05 1.54666e-05
0.0 0.0 -1.43822e-06
4.27121e-09 1.00761e-08 -4.82782e-09
0.0 0.0 -1.43822e-06
-1.03426e-06 5.91032e-08 1.53365e-06
-8.76283e-09 1.21214e-08 9.54148e-09
-1.78924e-09 6.07128e-09 -4.53882e-08
2.46832e-06 2.00544e-06 -1.78646e-06
6.6133e-05 7.13303e-05 8.95171e-05
5.71118e-05 -0.000117511 0.000139495
5.22904e-07 -1.1e-06 -1.06208e-06
0.0 0.0 0.0
4.34701e-07 2.47702e-07 -5.23741e-08
-2.90851e-09 -1.49611e-08 6.56979e-09
-6.02187e-21 5.02926e-21 -8.47033e-22
-9.83352e-21 2.64698e-22 4.23516e-22
-1.8758e-08 -3.2491e-08 1.5365e-08
0.0 0.0 -1.43822e-06
-2.33504e-08 -1.14415e-07 2.10852e-09
-4.63221e-23 2.64698e-23 0.0
-6.85686e-08 -5.75614e-09 -1.44952e-06
-6.13769e-09 -2.60134e-08 4.45133e-08
2.16482e-06 -1.02968e-05 1.4325e-05
-1.178e-06 -2.26769e-06 -1.76373e-06
7.32694e-08 -3.25048e-08 -7.77148e-09
1.35782e-05 1.26957e-06 -3.04768e-06
8.82938e-09 -1.37795e-08 1.52902e-07
