# vtk DataFile Version 3.0
LIGGGHTS particles timestep 2000000
ASCII
DATASET POLYDATA
POINTS 324 float
0.0214609 0.0243181 0.0140251
0.0180349 0.023783 0.0135625
0.0258482 0.0195204 0.0167346
0.0189976 0.0189718 0.0167381
0.0241353 0.0161045 0.0148476
0.0138933 0.0156182 0.0154867
0.0226895 0.0170843 0.0165231
0.0253579 0.0167764 0.0165761
0.022752 0.0231651 0.0156206
0.0223418 0.0196225 0.0159161
0.0199304 0.0212948 0.00783847
0.0230015 0.0166953 0.0152772
0.0174729 0.0243618 0.0139753
0.0193305 0.0241098 0.0163663
0.0246844 0.0176055 0.0157183
0.0196743 0.0175839 0.0171638
0.0227475 0.0225926 0.0164747
0.0221291 0.0144338 0.0140608
0.0182757 0.0240834 0.0127639
0.023981 0.0169223 0.0154089
0.0228429 0.0235 0.0142902
0.0188686 0.0146186 0.0119434
0.0195836 0.0244784 0.0136136
0.0227387 0.0177305 0.0157494
0.022699 0.0215752 0.0162864
0.0181586 0.0239801 0.0145948
0.0229133 0.0203921 0.0157367
0.0181522 0.013945 0.0163111
0.0182004 0.0230356 0.0149328
0.0205345 0.0244034 0.0137482
0.0199524 0.0236493 0.0140433
0.0234965 0.015118 0.0132637
0.0263542 0.0225941 0.00905504
0.0202518 0.0215339 0.0161359
0.021419 0.0233974 0.0122188
0.0234311 0.0230831 0.0148822
0.0226575 0.0220484 0.0147543
0.0220548 0.023903 0.0146973
0.0166846 0.0238648 0.0147663
0.0248691 0.0217438 0.0159149
0.0166207 0.0238822 0.0137639
0.0183477 0.0213086 0.0162331
0.0269446 0.0233981 0.0116262
0.0156545 0.0224642 0.0144756
0.0199164 0.0162276 0.0167877
0.0242311 0.015473 0.0156168
0.0189591 0.0235621 0.0141674
0.0158405 0.0235785 0.0143106
0.0190585 0.0175209 0.00747639
0.0221472 0.0237069 0.013714
0.0273611 0.0228059 0.0134885
0.0244853 0.0155544 0.00899107
0.0178695 0.0146244 0.0119838
0.0248298 0.0160098 0.0162111
0.0173853 0.0233611 0.0142556
0.020665 0.0240765 0.0125611
0.0265941 0.0231418 0.0100973
0.0217047 0.0212087 0.0170649
0.0190123 0.0137052 0.0134598
0.0610421 0.0187951 0.0058864
0.0172317 0.0228999 0.0151694
0.0239851 0.0185748 0.0169993
0.0209799 0.0209194 0.0164388
0.0236856 0.0228997 0.015759
0.0192202 0.0184354 0.00723881
0.0200038 0.0192685 0.0167412
0.0187759 0.0163345 0.00810287
0.0258621 0.020473 0.0170071
0.0151597 0.020846 0.0166096
0.0213506 0.0228879 0.0136461
0.0190019 0.0236822 0.0151989
0.019425 0.024128 0.0127412
0.0148656 0.0219862 0.0168369
0.0218458 0.0217045 0.0150613
0.0199057 0.0230902 0.0148701
0.0222427 0.0229848 0.0148113
0.0209421 0.0146453 0.0163961
0.0186269 0.024459 0.0137407
0.0184173 0.0149677 0.013328
0.0240193 0.0147607 0.0110593
0.0158541 0.0217227 0.0150967
0.0236149 0.018117 0.0158328
0.0270398 0.0223342 0.00869906
0.0157552 0.0234401 0.0152972
0.0234373 0.0221519 0.0170527
0.0163287 0.0109222 0.024788
0.0216813 0.022375 0.0144245
0.0169336 0.0238156 0.0163786
0.0268156 0.0167895 0.0240621
0.0206211 0.0231898 0.0102511
0.021224 0.0237062 0.0164406
0.024945 0.0185097 0.0167134
0.0205271 0.0229826 0.0165369
0.0190788 0.0218988 0.0158922
0.025926 0.0185199 0.0167638
0.0178713 0.0213856 0.0171664
0.0251861 0.0217607 0.016731
0.0178092 0.020499 0.0164652
0.0178129 0.0231436 0.0165723
0.0180114 0.0188459 0.0168489
0.0161299 0.0214061 0.0170926
0.0231413 0.0225905 0.0141365
0.0172718 0.0240008 0.0130145
0.021105 0.0236811 0.0137742
0.0175955 0.0156663 0.0155257
0.0210626 0.0146687 0.01439
0.0201759 0.0221437 0.00849781
0.0200758 0.0145532 0.0159054
0.0222658 0.0228293 0.0137905
0.0199121 0.0180746 0.00726931
0.0218565 0.0238516 0.0174484
0.0149296 0.0231895 0.0147918
0.02297 0.0212809 0.0153398
0.0153202 0.0225538 0.0154576
0.0181135 0.0143925 0.0154182
0.0176577 0.0236582 0.0156718
0.0243521 0.0223995 0.0160979
0.0237166 0.0215046 0.0163436
0.0239374 0.0210727 0.0154691
0.0157175 0.0236361 0.0178681
0.0232756 0.0157527 0.0144778
0.0198429 0.0139974 0.0129858
0.0186657 0.0234032 0.0170406
0.0225486 0.0145176 0.0149645
0.0230275 0.0198474 0.0165823
0.0233216 0.0178643 0.0167546
0.0221581 0.0233882 0.0166146
0.0177144 0.0174553 0.0156514
0.0246998 0.0203927 0.0165855
0.0193819 0.0210641 0.0163508
0.02031 0.0240101 0.0161712
0.0234818 0.014934 0.0150137
0.0254131 0.0210353 0.0163056
0.0213086 0.014213 0.0135337
0.017486 0.0151492 0.0136436
0.0190825 0.014228 0.0160157
0.0211799 0.0232314 0.0146676
0.0216878 0.0232912 0.0130156
0.0185422 0.0236825 0.0180116
0.01552 0.0199154 0.0167134
0.0259652 0.0213347 0.00794494
0.0243648 0.0210227 0.0173308
0.018074 0.0138047 0.0137909
0.018199 0.0223126 0.0156252
0.0196749 0.0232562 0.0158714
0.020651 0.0231033 0.0155441
0.0171952 0.0141404 0.0134506
0.0215395 0.0157333 0.0155923
0.0161652 0.0232114 0.0130648
0.0240286 0.021862 0.0178399
0.0154327 0.0229546 0.0136441
0.0208392 0.023391 0.0112342
0.014185 0.0168934 0.0162842
0.0153451 0.0146982 0.014445
0.0230604 0.0222131 0.0156042
0.0220928 0.0224303 0.015684
0.0190525 0.0155859 0.0143005
0.0227544 0.0155816 0.0164757
0.0258344 0.0175506 0.0169925
0.0205541 0.0173003 0.0166858
0.0164936 0.0230631 0.0158562
0.0161687 0.0235006 0.016959
0.0172096 0.0222659 0.0160216
0.0208807 0.0227997 0.00937551
0.0183274 0.0240174 0.0163222
0.0141788 0.0227312 0.0152676
0.0126156 0.0179257 0.0159112
0.0243018 0.0176977 0.0166373
0.0244567 0.0185687 0.0159105
0.0194742 0.0170463 0.0163448
0.022553 0.0186701 0.0159538
0.0180933 0.0245931 0.0179003
0.0172636 0.0141805 0.0167066
0.0238214 0.0173737 0.0174685
0.0197658 0.0154765 0.0161318
0.0174371 0.018224 0.0163165
0.0142366 0.021211 0.0164942
0.0167386 0.0214576 0.0155099
0.0172942 0.0157181 0.0144432
0.0232968 0.0158249 0.0156712
0.0237353 0.0195191 0.0172137
0.0183073 0.0151566 0.0160337
0.0178995 0.0165513 0.0151731
0.0162832 0.0143207 0.0138653
0.0176325 0.0242137 0.0170786
0.0190688 0.0149921 0.0166606
0.0165296 0.0188057 0.0159379
0.0203481 0.0142633 0.0138067
0.0192963 0.020105 0.0166188
0.020475 0.0155462 0.0154088
0.0202289 0.0144868 0.0149114
0.0192738 0.0148061 0.0128382
0.0145269 0.0198 0.0167046
0.0169375 0.0219786 0.0169467
0.0175962 0.0144677 0.0143671
0.0170419 0.0211382 0.0164153
0.0237176 0.0219248 0.0148921
0.0194828 0.0153585 0.0151801
0.0227332 0.0208953 0.0170236
0.0169634 0.01684 0.0153736
0.0195441 0.0146983 0.0142123
0.0172491 0.0195958 0.0159133
0.0162981 0.0198636 0.0160191
0.0155918 0.0181267 0.0167083
0.0203178 0.0183121 0.0166956
0.0178326 0.0212702 0.0153519
0.0135163 0.0217183 0.0160224
0.0185211 0.0132322 0.0179347
0.0137092 0.0203666 0.0166059
0.0180112 0.0141637 0.0128598
0.0222026 0.0194787 0.0170315
0.0188252 0.0244394 0.0171758
0.0217076 0.0216164 0.0161511
0.0194765 0.0135081 0.0177299
0.0135778 0.0193858 0.0167505
0.0224456 0.0153112 0.0155639
0.0164847 0.0155069 0.0154451
0.0168693 0.0228961 0.0173378
0.0238576 0.020073 0.0158343
0.0171157 0.0230918 0.0133253
0.0168444 0.0233915 0.0123903
0.0220127 0.0204475 0.0164927
0.024354 0.0194266 0.0164283
0.0246455 0.0198707 0.0174381
0.0190387 0.0144728 0.0150451
0.0186147 0.0176327 0.016073
0.0200085 0.0244532 0.0170471
0.0234438 0.0190001 0.0162625
0.0249655 0.0194324 0.0182924
0.0183817 0.0152344 0.0149521
0.0129475 0.0209843 0.0164115
0.0235032 0.0163329 0.0165073
0.0238316 0.0163738 0.0174642
0.017609 0.0234485 0.0177217
0.0196722 0.0233623 0.0169475
0.0166932 0.0221116 0.0147548
0.0164211 0.0227661 0.0139396
0.0162975 0.0148467 0.0147156
0.0219155 0.0147034 0.0166375
0.0133214 0.0163291 0.0159127
0.0161347 0.0222692 0.0175973
0.0167195 0.0241365 0.0175095
0.0196435 0.0185706 0.0173875
0.0206987 0.0189353 0.0173783
0.017216 0.016898 0.0163495
0.0125321 0.0200757 0.0164441
0.022063 0.0208781 0.0155688
0.019467 0.0248147 0.017852
0.0236574 0.0205549 0.0168382
0.0182196 0.019804 0.0158751
0.0202897 0.0202202 0.0166265
0.0189259 0.0162164 0.0166515
0.0212102 0.0198393 0.0167239
0.0167468 0.0177584 0.0157629
0.0210262 0.0103226 0.025673
0.0145693 0.0220257 0.0158591
0.0223526 0.0181107 0.0167639
0.0174656 0.0178989 0.0188521
0.020915 0.0241875 0.0174171
0.0145598 0.0150834 0.0149423
0.0207468 0.0141019 0.0172208
0.0149635 0.0189025 0.0167638
0.0154169 0.0228849 0.0172726
0.0181623 0.0221954 0.0166577
0.0252536 0.0190765 0.0173985
0.0213362 0.0150412 0.0173791
0.0188131 0.0159388 0.0156432
0.0303785 0.0106954 0.0391368
0.0208639 0.0205179 0.0173893
0.0156758 0.0163437 0.016046
0.0161826 0.0204223 0.0172646
0.0148415 0.015871 0.0156791
0.0201558 0.0149997 0.0169201
0.0190428 0.0217674 0.0169761
0.0174302 0.0155473 0.0165646
0.0207414 0.0158199 0.0171787
0.0156139 0.0164404 0.0183711
0.0179344 0.013669 0.0172479
0.0173271 0.0147738 0.0159036
0.0182927 0.0185685 0.0159303
0.0180965 0.0164606 0.0161492
0.019089 0.0226941 0.0152876
0.0202567 0.0158466 0.0187993
0.0214859 0.0188324 0.0167705
0.0198009 0.0230552 0.0187218
0.015616 0.0216513 0.0160777
0.0213973 0.0178411 0.0166431
0.0158525 0.0225562 0.016433
0.0163799 0.0175133 0.0166612
0.0244111 0.0166035 0.0182555
0.0207558 0.0193781 0.0186032
0.0186173 0.0207337 0.0170199
0.0199645 0.022332 0.0156067
0.0160324 0.0190567 0.0167896
0.0197352 0.0207804 0.0172419
0.0118816 0.0322481 0.0406831
0.022167 0.016243 0.0170279
0.0188945 0.0137272 0.0169461
0.0222317 0.0228074 0.0174255
0.0211977 0.0148177 0.0153799
0.0172235 0.0206802 0.0174534
0.0198132 0.0140744 0.0167493
0.0184114 0.0197588 0.0169303
0.0229092 0.0167594 0.0174547
0.0154296 0.0193466 0.0175329
0.0165567 0.0150204 0.0164918
0.0155306 0.0153153 0.0152096
0.0188065 0.0169107 0.0154085
0.0165825 0.0160095 0.016304
0.0176772 0.0220859 0.0147414
0.0167985 0.0163974 0.0172035
0.0222233 0.0207855 0.0178795
0.0209479 0.0222096 0.0158837
0.0216353 0.0233112 0.015601
0.0151888 0.0213058 0.017497
0.0222525 0.0163251 0.0160338
0.0196991 0.0224035 0.0165682
0.016107 0.0208055 0.0162936
0.0169456 0.0199989 0.0167764
0.0216317 0.0220736 0.0184742
0.0215213 0.0156209 0.0165856
0.0213594 0.0222787 0.0168181
0.0188216 0.0228216 0.0162423
0.0205916 0.0164991 0.0160887

VERTICES 324 648
1 0
1 1
1 2
1 3
1 4
1 5
1 6
1 7
1 8
1 9
1 10
1 11
1 12
1 13
1 14
1 15
1 16
1 17
1 18
1 19
1 20
1 21
1 22
1 23
1 24
1 25
1 26
1 27
1 28
1 29
1 30
1 31
1 32
1 33
1 34
1 35
1 36
1 37
1 38
1 39
1 40
1 41
1 42
1 43
1 44
1 45
1 46
1 47
1 48
1 49
1 50
1 51
1 52
1 53
1 54
1 55
1 56
1 57
1 58
1 59
1 60
1 61
1 62
1 63
1 64
1 65
1 66
1 67
1 68
1 69
1 70
1 71
1 72
1 73
1 74
1 75
1 76
1 77
1 78
1 79
1 80
1 81
1 82
1 83
1 84
1 85
1 86
1 87
1 88
1 89
1 90
1 91
1 92
1 93
1 94
1 95
1 96
1 97
1 98
1 99
1 100
1 101
1 102
1 103
1 104
1 105
1 106
1 107
1 108
1 109
1 110
1 111
1 112
1 113
1 114
1 115
1 116
1 117
1 118
1 119
1 120
1 121
1 122
1 123
1 124
1 125
1 126
1 127
1 128
1 129
1 130
1 131
1 132
1 133
1 134
1 135
1 136
1 137
1 138
1 139
1 140
1 141
1 142
1 143
1 144
1 145
1 146
1 147
1 148
1 149
1 150
1 151
1 152
1 153
1 154
1 155
1 156
1 157
1 158
1 159
1 160
1 161
1 162
1 163
1 164
1 165
1 166
1 167
1 168
1 169
1 170
1 171
1 172
1 173
1 174
1 175
1 176
1 177
1 178
1 179
1 180
1 181
1 182
1 183
1 184
1 185
1 186
1 187
1 188
1 189
1 190
1 191
1 192
1 193
1 194
1 195
1 196
1 197
1 198
1 199
1 200
1 201
1 202
1 203
1 204
1 205
1 206
1 207
1 208
1 209
1 210
1 211
1 212
1 213
1 214
1 215
1 216
1 217
1 218
1 219
1 220
1 221
1 222
1 223
1 224
1 225
1 226
1 227
1 228
1 229
1 230
1 231
1 232
1 233
1 234
1 235
1 236
1 237
1 238
1 239
1 240
1 241
1 242
1 243
1 244
1 245
1 246
1 247
1 248
1 249
1 250
1 251
1 252
1 253
1 254
1 255
1 256
1 257
1 258
1 259
1 260
1 261
1 262
1 263
1 264
1 265
1 266
1 267
1 268
1 269
1 270
1 271
1 272
1 273
1 274
1 275
1 276
1 277
1 278
1 279
1 280
1 281
1 282
1 283
1 284
1 285
1 286
1 287
1 288
1 289
1 290
1 291
1 292
1 293
1 294
1 295
1 296
1 297
1 298
1 299
1 300
1 301
1 302
1 303
1 304
1 305
1 306
1 307
1 308
1 309
1 310
1 311
1 312
1 313
1 314
1 315
1 316
1 317
1 318
1 319
1 320
1 321
1 322
1 323

POINT_DATA 324
SCALARS id int 1
LOOKUP_TABLE default
1
2
3
4
5
6
7
8
9
10
11
12
13
14
15
16
17
18
19
20
21
22
23
24
25
26
27
28
29
30
31
32
33
34
36
37
38
40
41
42
43
44
45
46
47
48
49
50
51
52
53
54
55
56
57
58
59
60
61
62
63
64
65
66
67
68
69
70
71
72
73
74
75
76
77
78
79
80
81
82
83
84
85
86
87
88
90
91
92
93
94
95
96
97
99
100
101
102
103
104
105
106
107
108
109
110
111
112
113
114
115
116
117
118
119
120
121
122
123
124
125
126
127
128
129
130
131
132
133
134
135
136
137
138
139
140
141
142
143
144
145
146
147
148
149
150
152
153
155
156
157
158
159
160
161
162
163
164
165
166
167
168
169
170
171
172
173
174
175
176
177
178
179
180
181
182
183
184
185
186
187
188
189
190
191
192
193
194
195
196
197
199
200
201
202
203
204
205
206
207
208
209
210
212
213
214
215
218
219
220
221
222
223
224
225
226
227
228
229
230
231
232
233
234
235
236
237
238
240
242
244
245
246
247
249
250
251
252
253
255
256
257
258
259
260
261
262
263
264
265
266
267
268
269
270
271
272
273
274
275
276
277
278
279
280
281
282
283
284
285
286
287
288
289
290
291
292
293
294
295
296
297
298
299
300
301
302
303
304
305
306
307
308
309
310
312
313
314
315
316
317
318
319
320
321
322
323
324
325
326
327
328
329
330
331
332
333
334
335
336
337
338
339
340

SCALARS type int 1
LOOKUP_TABLE default
1
1
1
1
1
1
1
1
1
1
1
1
1
1
1
1
1
1
1
1
1
1
1
1
1
1
1
1
1
1
1
1
1
1
1
1
1
1
1
1
1
1
1
1
1
1
1
1
1
1
1
1
1
1
1
1
1
1
1
1
1
1
1
1
1
1
1
1
1
1
1
1
1
1
1
1
1
1
1
1
1
1
1
1
1
1
1
1
1
1
1
1
1
1
1
1
1
1
1
1
1
1
1
1
1
1
1
1
1
1
1
1
1
1
1
1
1
1
1
1
1
1
1
1
1
1
1
1
1
1
1
1
1
1
1
1
1
1
1
1
1
1
1
1
1
1
1
1
1
1
1
1
1
1
1
1
1
1
1
1
1
1
1
1
1
1
1
1
1
1
1
1
1
1
1
1
1
1
1
1
1
1
1
1
1
1
1
1
1
1
1
1
1
1
1
1
1
1
1
1
1
1
1
1
1
1
1
1
1
1
1
1
1
1
1
1
1
1
1
1
1
1
1
1
1
1
1
1
1
1
1
1
1
1
1
1
1
1
1
1
1
1
1
1
1
1
1
1
1
1
1
1
1
1
1
1
1
1
1
1
1
1
1
1
1
1
1
1
1
1
1
1
1
1
1
1
1
1
1
1
1
1
1
1
1
1
1
1
1
1
1
1
1
1
1
1
1
1
1
1
1
1
1
1
1
1
1
1
1
1
1
1
1
1
1
1
1
1
1
1
1
1
1
1

SCALARS radius float 1
LOOKUP_TABLE default
0.0005
0.0005
0.0005
0.0005
0.0005
0.0005
0.0005
0.0005
0.0005
0.0005
0.0005
0.0005
0.0005
0.0005
0.0005
0.0005
0.0005
0.0005
0.0005
0.0005
0.0005
0.0005
0.0005
0.0005
0.0005
0.0005
0.0005
0.0005
0.0005
0.0005
0.0005
0.0005
0.0005
0.0005
0.0005
0.0005
0.0005
0.0005
0.0005
0.0005
0.0005
0.0005
0.0005
0.0005
0.0005
0.0005
0.0005
0.0005
0.0005
0.0005
0.0005
0.0005
0.0005
0.0005
0.0005
0.0005
0.0005
0.0005
0.0005
0.0005
0.0005
0.0005
0.0005
0.0005
0.0005
0.0005
0.0005
0.0005
0.0005
0.0005
0.0005
0.0005
0.0005
0.0005
0.0005
0.0005
0.0005
0.0005
0.0005
0.0005
0.0005
0.0005
0.0005
0.0005
0.0005
0.0005
0.0005
0.0005
0.0005
0.0005
0.0005
0.0005
0.0005
0.0005
0.0005
0.0005
0.0005
0.0005
0.0005
0.0005
0.0005
0.0005
0.0005
0.0005
0.0005
0.0005
0.0005
0.0005
0.0005
0.0005
0.0005
0.0005
0.0005
0.0005
0.0005
0.0005
0.0005
0.0005
0.0005
0.0005
0.0005
0.0005
0.0005
0.0005
0.0005
0.0005
0.0005
0.0005
0.0005
0.0005
0.0005
0.0005
0.0005
0.0005
0.0005
0.0005
0.0005
0.0005
0.0005
0.0005
0.0005
0.0005
0.0005
0.0005
0.0005
0.0005
0.0005
0.0005
0.0005
0.0005
0.0005
0.0005
0.0005
0.0005
0.0005
0.0005
0.0005
0.0005
0.0005
0.0005
0.0005
0.0005
0.0005
0.0005
0.0005
0.0005
0.0005
0.0005
0.0005
0.0005
0.0005
0.0005
0.0005
0.0005
0.0005
0.0005
0.0005
0.0005
0.0005
0.0005
0.0005
0.0005
0.0005
0.0005
0.0005
0.0005
0.0005
0.0005
0.0005
0.0005
0.0005
0.0005
0.0005
0.0005
0.0005
0.0005
0.0005
0.0005
0.0005
0.0005
0.0005
0.0005
0.0005
0.0005
0.0005
0.0005
0.0005
0.0005
0.0005
0.0005
0.0005
0.0005
0.0005
0.0005
0.0005
0.0005
0.0005
0.0005
0.0005
0.0005
0.0005
0.0005
0.0005
0.0005
0.0005
0.0005
0.0005
0.0005
0.0005
0.0005
0.0005
0.0005
0.0005
0.0005
0.0005
0.0005
0.0005
0.0005
0.0005
0.0005
0.0005
0.0005
0.0005
0.0005
0.0005
0.0005
0.0005
0.0005
0.0005
0.0005
0.0005
0.0005
0.0005
0.0005
0.0005
0.0005
0.0005
0.0005
0.0005
0.0005
0.0005
0.0005
0.0005
0.0005
0.0005
0.0005
0.0005
0.0005
0.0005
0.0005
0.0005
0.0005
0.0005
0.0005
0.0005
0.0005
0.0005
0.0005
0.0005
0.0005
0.0005
0.0005
0.0005
0.0005
0.0005
0.0005
0.0005
0.0005
0.0005
0.0005
0.0005
0.0005
0.0005
0.0005
0.0005
0.0005
0.0005
0.0005
0.0005
0.0005
0.0005
0.0005
0.0005
0.0005
0.0005
0.0005
0.0005
0.0005
0.0005
0.0005
0.0005
0.0005
0.0005
0.0005
0.0005
0.0005
0.0005
0.0005
0.0005
0.0005
0.0005
0.0005
0.0005
0.0005

SCALARS mass float 1
LOOKUP_TABLE default
1.46608e-07
1.46608e-07
1.46608e-07
1.46608e-07
1.46608e-07
1.46608e-07
1.46608e-07
1.46608e-07
1.46608e-07
1.46608e-07
1.46608e-07
1.46608e-07
1.46608e-07
1.46608e-07
1.46608e-07
1.46608e-07
1.46608e-07
1.46608e-07
1.46608e-07
1.46608e-07
1.46608e-07
1.46608e-07
1.46608e-07
1.46608e-07
1.46608e-07
1.46608e-07
1.46608e-07
1.46608e-07
1.46608e-07
1.46608e-07
1.46608e-07
1.46608e-07
1.46608e-07
1.46608e-07
1.46608e-07
1.46608e-07
1.46608e-07
1.46608e-07
1.46608e-07
1.46608e-07
1.46608e-07
1.46608e-07
1.46608e-07
1.46608e-07
1.46608e-07
1.46608e-07
1.46608e-07
1.46608e-07
1.46608e-07
1.46608e-07
1.46608e-07
1.46608e-07
1.46608e-07
1.46608e-07
1.46608e-07
1.46608e-07
1.46608e-07
1.46608e-07
1.46608e-07
1.46608e-07
1.46608e-07
1.46608e-07
1.46608e-07
1.46608e-07
1.46608e-07
1.46608e-07
1.46608e-07
1.46608e-07
1.46608e-07
1.46608e-07
1.46608e-07
1.46608e-07
1.46608e-07
1.46608e-07
1.46608e-07
1.46608e-07
1.46608e-07
1.46608e-07
1.46608e-07
1.46608e-07
1.46608e-07
1.46608e-07
1.46608e-07
1.46608e-07
1.46608e-07
1.46608e-07
1.46608e-07
1.46608e-07
1.46608e-07
1.46608e-07
1.46608e-07
1.46608e-07
1.46608e-07
1.46608e-07
1.46608e-07
1.46608e-07
1.46608e-07
1.46608e-07
1.46608e-07
1.46608e-07
1.46608e-07
1.46608e-07
1.46608e-07
1.46608e-07
1.46608e-07
1.46608e-07
1.46608e-07
1.46608e-07
1.46608e-07
1.46608e-07
1.46608e-07
1.46608e-07
1.46608e-07
1.46608e-07
1.46608e-07
1.46608e-07
1.46608e-07
1.46608e-07
1.46608e-07
1.46608e-07
1.46608e-07
1.46608e-07
1.46608e-07
1.46608e-07
1.46608e-07
1.46608e-07
1.46608e-07
1.46608e-07
1.46608e-07
1.46608e-07
1.46608e-07
1.46608e-07
1.46608e-07
1.46608e-07
1.46608e-07
1.46608e-07
1.46608e-07
1.46608e-07
1.46608e-07
1.46608e-07
1.46608e-07
1.46608e-07
1.46608e-07
1.46608e-07
1.46608e-07
1.46608e-07
1.46608e-07
1.46608e-07
1.46608e-07
1.46608e-07
1.46608e-07
1.46608e-07
1.46608e-07
1.46608e-07
1.46608e-07
1.46608e-07
1.46608e-07
1.46608e-07
1.46608e-07
1.46608e-07
1.46608e-07
1.46608e-07
1.46608e-07
1.46608e-07
1.46608e-07
1.46608e-07
1.46608e-07
1.46608e-07
1.46608e-07
1.46608e-07
1.46608e-07
1.46608e-07
1.46608e-07
1.46608e-07
1.46608e-07
1.46608e-07
1.46608e-07
1.46608e-07
1.46608e-07
1.46608e-07
1.46608e-07
1.46608e-07
1.46608e-07
1.46608e-07
1.46608e-07
1.46608e-07
1.46608e-07
1.46608e-07
1.46608e-07
1.46608e-07
1.46608e-07
1.46608e-07
1.46608e-07
1.46608e-07
1.46608e-07
1.46608e-07
1.46608e-07
1.46608e-07
1.46608e-07
1.46608e-07
1.46608e-07
1.46608e-07
1.46608e-07
1.46608e-07
1.46608e-07
1.46608e-07
1.46608e-07
1.46608e-07
1.46608e-07
1.46608e-07
1.46608e-07
1.46608e-07
1.46608e-07
1.46608e-07
1.46608e-07
1.46608e-07
1.46608e-07
1.46608e-07
1.46608e-07
1.46608e-07
1.46608e-07
1.46608e-07
1.46608e-07
1.46608e-07
1.46608e-07
1.46608e-07
1.46608e-07
1.46608e-07
1.46608e-07
1.46608e-07
1.46608e-07
1.46608e-07
1.46608e-07
1.46608e-07
1.46608e-07
1.46608e-07
1.46608e-07
1.46608e-07
1.46608e-07
1.46608e-07
1.46608e-07
1.46608e-07
1.46608e-07
1.46608e-07
1.46608e-07
1.46608e-07
1.46608e-07
1.46608e-07
1.46608e-07
1.46608e-07
1.46608e-07
1.46608e-07
1.46608e-07
1.46608e-07
1.46608e-07
1.46608e-07
1.46608e-07
1.46608e-07
1.46608e-07
1.46608e-07
1.46608e-07
1.46608e-07
1.46608e-07
1.46608e-07
1.46608e-07
1.46608e-07
1.46608e-07
1.46608e-07
1.46608e-07
1.46608e-07
1.46608e-07
1.46608e-07
1.46608e-07
1.46608e-07
1.46608e-07
1.46608e-07
1.46608e-07
1.46608e-07
1.46608e-07
1.46608e-07
1.46608e-07
1.46608e-07
1.46608e-07
1.46608e-07
1.46608e-07
1.46608e-07
1.46608e-07
1.46608e-07
1.46608e-07
1.46608e-07
1.46608e-07
1.46608e-07
1.46608e-07
1.46608e-07
1.46608e-07
1.46608e-07
1.46608e-07
1.46608e-07
1.46608e-07
1.46608e-07
1.46608e-07
1.46608e-07
1.46608e-07
1.46608e-07
1.46608e-07
1.46608e-07
1.46608e-07
1.46608e-07
1.46608e-07
1.46608e-07
1.46608e-07
1.46608e-07
1.46608e-07
1.46608e-07
1.46608e-07
1.46608e-07
1.46608e-07
1.46608e-07
1.46608e-07
1.46608e-07
1.46608e-07
1.46608e-07
1.46608e-07
1.46608e-07

VECTORS velocity float
-0.00089146 0.00086102 3.62812e-05
0.000499704 0.00228517 -0.00499575
-0.000273655 1.15191e-05 -0.00232082
0.00365653 0.0208525 0.000216035
0.00335689 0.0089457 0.00934053
0.00662223 -0.0047398 -0.00818042
0.0125981 0.00343609 -0.00345419
-0.000827006 0.00134798 -0.00416838
-0.00169006 -0.00133723 0.000590086
2.15014e-05 0.0188748 -0.00382456
0.00128436 -0.0193001 -0.0105247
0.00268624 0.0133177 0.00751213
0.000883957 -0.000960007 0.00148882
0.0034645 0.00940851 0.0171426
0.00274623 0.014743 0.00440262
0.00783692 0.0123512 -0.00775462
-0.000101657 -0.00143268 0.000821956
-8.75828e-05 -9.9181e-05 0.000249205
-0.000123991 0.00307868 -0.00287762
0.0014734 0.0120801 0.00751836
-0.00150798 -0.000890375 0.000536612
0.00592173 -0.00137101 0.00203735
-0.000579836 -0.00039086 -0.00241279
-0.000181632 0.0251462 0.00743493
-0.0103104 0.00420932 -0.0293154
-0.00693639 -0.0202606 0.0322576
0.000315905 0.0124844 -0.00265967
0.0012524 -0.00442682 0.00795163
-0.0267085 -0.0290718 0.0297228
-0.000988828 0.00103429 -0.000834884
-0.0021472 0.00178057 -0.00390114
0.00118569 0.00795211 0.0174085
0.00154427 -0.0108048 -0.0150135
0.00395859 0.0125735 -0.00720169
-0.00569091 -6.95777e-05 -0.0125431
-8.10142e-05 -4.32696e-05 0.000120314
0.00437148 0.00151728 -0.000681848
-0.00152829 -0.000247419 0.00104976
0.00940087 0.0037013 -0.0111143
0.000178271 0.000508189 0.000431945
0.00159795 0.00134934 0.00056295
-0.000632523 -0.00173805 0.0150476
0.000411718 0.00114247 -0.0248202
0.00433081 0.00476477 -0.000771132
0.00155113 -0.00157329 -0.00783942
-5.44687e-06 -0.0010207 0.00096872
-0.0314961 -0.0100505 0.00885689
0.000597239 0.00108598 0.00123988
0.000538487 -0.0222742 0.00943592
-0.0011599 -7.83702e-05 0.00135847
-0.000160766 0.0142659 -0.0223531
0.00359096 -0.00775605 0.0142955
0.00596236 -0.00152801 0.00102475
-0.000120732 -0.00189119 0.0019511
-0.0089865 -0.0166896 -0.0215539
-0.006196 -0.00624127 0.0040208
0.000263408 -0.00772481 -0.024032
8.39718e-05 0.0231093 0.00254964
0.000403637 -0.00100819 0.001718
6.09885e-15 2.72024e-14 1.94806e-13
0.0248043 0.00397722 -0.00579834
0.000718075 -0.00309384 0.00442015
0.00876681 0.019523 -0.00846594
0.000512415 0.00126508 -0.000471804
0.000117157 -0.0246616 0.00342964
-0.00138721 0.0236129 -0.000899399
0.00106662 -0.0165967 0.0137711
0.000102957 0.000282244 -0.00062304
0.00714078 0.0166121 0.00819358
0.00193488 0.0103943 -0.018355
-0.00139508 -0.000937941 0.00322729
-0.000124828 0.000346856 -0.00958125
0.0113764 -0.00306157 -0.0402505
0.00520765 -0.000267331 -0.00122019
0.00127229 0.00356956 0.00030875
-0.010371 -0.000553497 0.00252647
0.0076311 0.0103459 -0.0473045
0.000195858 0.000409107 -0.00196024
0.0008703 -0.000305638 0.00682537
0.000256419 -0.00356042 0.025197
0.00381372 0.00781544 0.0034226
-0.00079092 0.0252459 0.00428941
0.00382708 -0.0124299 -0.0138173
0.00158967 0.00332771 0.00182049
-0.0012458 0.00252074 0.00143936
0.0385664 0.10935 -0.317594
-0.0205823 0.00179895 0.0027854
0.00926097 0.00246781 -0.00279331
-0.1373 -0.00735658 -0.325315
0.000664935 -0.00859035 -0.0230679
0.00373056 -0.00127384 0.00284578
-0.000424908 0.00551231 0.00107333
0.0232309 -0.0085166 -0.00455478
0.00384255 -0.00419241 0.00712385
0.000190739 0.00251635 0.000884496
-0.000696805 0.0101275 0.010198
0.000167677 0.000941152 0.000359499
-0.0176029 0.00437594 0.012932
0.0141865 0.0221208 0.031828
0.00233588 0.0204876 0.00448392
-3.8833e-05 0.0207926 9.10047e-05
0.00261006 0.00196229 -0.00238597
0.00142428 0.000956728 -0.00129769
-0.000198263 0.00545732 -0.00803516
-0.00524572 -0.00617753 -0.0364777
0.00211178 -0.00493827 -0.005144
0.000539155 -0.0113512 -0.0122119
-0.00452985 0.0116621 -0.0266359
-0.000617204 -0.0016605 -0.000449201
0.000510025 -0.0243897 0.00501159
0.0265036 0.00180615 0.0121201
0.00502384 0.0024351 -0.00201951
0.00179894 0.00952654 -0.0044937
0.00944036 0.00339093 -0.00345307
-0.002551 -0.002481 0.0125492
-0.000114106 0.00546046 0.0107946
2.13753e-05 0.000506119 -0.000106058
0.00130206 0.00753281 -0.00300043
0.000355029 0.0189954 -0.00983172
-0.00862013 -0.0039633 0.00801084
0.000331653 0.0148088 0.0154081
0.000114538 -0.000531451 0.00132066
0.0172638 0.0109718 0.00733278
0.000487132 0.000717168 0.000289433
-0.000837181 0.0248774 -0.0129888
-0.00478472 0.00585411 -0.00184659
-0.000420634 -0.000322927 0.0019298
0.00017154 0.0114155 0.00380906
-0.00595125 0.00800804 -0.00194174
0.00982498 -0.00219645 0.00280351
-0.000103316 -0.00172809 0.00303033
-0.00633697 -0.00236491 -0.00685047
-0.000117086 0.00303149 0.00113522
-0.000429088 -0.000618526 0.00100354
0.0030833 0.00497288 0.0110187
-0.00736801 0.0122325 -0.0302378
0.00909837 -0.002205 -0.0228573
0.0129642 0.0150177 -0.0142906
0.0201643 0.00912249 -0.00337038
0.00567877 0.0128355 -0.00262947
-5.31044e-05 -0.0210718 -0.0146824
-0.000225417 0.00275857 -0.00234677
0.000657061 -0.00100291 0.00251139
-0.011445 -0.0307809 0.0397106
0.0100168 0.0113553 -0.0143455
-0.00354977 0.00205595 -0.00767196
0.000538237 7.44344e-05 -0.000653545
0.00149574 0.00244038 0.00023374
0.00483064 0.0018754 -0.00371952
-0.00311719 0.007621 0.00636918
0.00508081 0.0023753 -0.00296229
0.00130163 -0.00195941 -0.0159041
-0.000648402 -0.00819133 -0.0038393
0.00275804 -0.00035239 -0.00267823
0.00323361 0.00347838 -0.00180889
0.00485672 -0.00352016 0.00418576
-0.00500246 0.014311 0.0245904
0.00639368 0.00330724 -0.00369097
-0.00180631 0.000276058 -0.00387222
-0.0130405 0.0141608 -0.0384967
0.0105356 0.0166746 0.00110979
0.00492964 0.00695102 0.00218019
0.00111701 0.00913973 -0.0122126
3.24812e-05 -0.0119847 -0.0216002
0.0111546 0.00151857 0.0016146
0.00283798 0.00444356 -0.00522605
0.00542943 0.00427078 -0.0674189
-0.00155942 -0.00938978 -0.00203484
0.000970014 0.0186895 0.00312442
-0.00336698 0.00384444 0.000570594
0.000375184 0.0245085 0.00106875
0.00960379 0.0113584 0.0276467
0.00136247 0.00144849 -0.00341411
-0.00765472 -0.00257882 -0.00718714
-0.00535261 0.0115082 -0.0251993
0.00224449 0.0197397 0.00386119
0.000201784 0.00253704 0.00591661
0.0154669 0.0123882 -0.0342446
0.00499286 0.00732586 0.00994814
0.00151466 0.00485476 -0.00968586
-0.00020494 -0.00580805 0.00750811
-0.00680052 0.00867078 -0.0109655
-0.00250548 0.0102855 0.00658835
0.00228615 -0.00195157 0.000718817
0.0139229 0.00948804 0.0164062
0.00296137 0.00177682 -0.0231949
0.00055996 0.0244223 0.00143151
-0.000245189 -0.00243958 0.00232282
0.0101021 -0.00199451 -0.000804716
-0.000853201 -0.0212861 -0.0206743
-0.0149239 -0.00305369 -0.0354442
-0.000190135 -4.75194e-05 0.00457182
0.00586563 0.00766057 -0.000823207
0.00293063 0.0211201 0.00478665
0.000638234 -0.00205264 0.00406023
0.00142111 0.0248043 -0.00232614
0.000198817 0.0209476 -0.017758
-0.0129203 -0.00863207 -0.0211915
-0.00766733 0.0302971 0.00581653
0.00116048 0.0198583 0.00988004
-0.0148628 0.00327196 -0.0330644
0.000118768 0.0263766 -0.00298044
6.31744e-05 0.0270057 -0.00459096
0.00296077 0.00517957 0.000755509
0.000428582 0.0227176 0.00257627
-4.44591e-05 0.0251699 -0.0145871
0.000310319 0.000610726 0.00225936
0.0298225 -0.00238537 -0.0191549
0.00353688 0.00419363 -0.000479494
0.00353099 -0.00146542 0.00179537
-0.00362111 0.0199543 -0.00744001
0.0169705 0.0148013 0.0178765
0.00442791 -0.000991566 -0.00648926
0.0280754 0.0158679 -0.0172118
0.0032346 0.00244594 -0.00249764
0.00141903 0.00319821 -0.00217529
0.000552491 -0.0036458 0.00117078
0.00892548 0.0196626 0.0135082
0.00654261 0.0185334 -0.00490169
0.00397835 0.00133269 -0.00235887
0.00574702 0.000670757 -0.00525622
0.000822548 0.0263314 -0.00776116
-0.00206433 0.0207539 -0.00942073
0.0129621 0.00194494 -0.0015726
-0.0157898 -0.00495389 -0.0355976
-0.00463587 0.0198881 -0.0021352
0.0265331 -0.00503182 0.0185752
0.00187346 0.0315128 -0.0109904
-0.00912434 0.00821048 -0.0128966
-0.0107143 -0.000122842 0.0176048
-4.88632e-05 0.00468017 0.00299799
0.00487721 0.0163702 -0.0174585
-0.0043197 -0.00143628 -0.00712559
0.0163177 0.0101283 0.0180522
0.013897 -0.00517322 0.00212223
0.00208672 0.0216017 0.0131445
0.00476437 0.000417039 -0.00116438
0.00284403 -0.00203509 0.00105639
-0.000276292 -3.84564e-05 0.00093626
0.0119798 0.00277661 -0.0253426
0.0113838 0.0166925 0.00430901
-0.00205493 -0.00101423 -0.00159512
-0.00214519 0.0151165 0.001644
-0.00400012 0.0213594 0.00178807
0.0112867 0.0258851 -0.00110576
0.00344166 0.0130203 0.00700033
0.00379982 0.00751407 0.0059976
0.0200873 0.00916261 0.0159062
-0.0128726 0.0282069 -0.00646796
-3.37099e-05 0.0269001 -0.00450775
0.00773527 0.0217803 -0.00404679
0.00136946 -0.0114437 -0.0048768
0.00941035 0.0271187 -0.00412912
0.00103848 0.0209103 0.00666415
-0.0608428 0.134258 -0.324004
0.00502436 0.00475128 -0.00442834
-0.00464528 0.0080489 -0.0096545
0.0 -0.0 -0.03
0.0225734 -0.00266273 0.0204545
0.00433994 -0.00284444 -0.00124839
-0.00539297 0.0189282 -0.0422556
0.00616568 0.00768194 0.000432104
0.00549113 0.00789853 0.00251166
0.00273241 0.0085594 0.00969452
0.000394289 0.00118672 0.000765256
-0.00620783 -0.000739775 -0.00228279
-0.0083076 -0.000892968 -0.028245
0.0132373 0.00366472 -0.079763
0.0172508 0.022042 -0.013225
-0.00292991 0.00428357 0.00272175
-0.00250828 0.0188231 0.00294565
0.00939112 -0.0143445 -0.00921967
0.00487537 0.016296 -0.0359748
0.003496 0.0110056 -0.00831085
0.00211425 0.0136061 -0.00533113
0.00150405 0.004333 -0.00193078
0.0 0.0 -0.04575
-0.0208898 0.00596052 0.00478101
-0.00354793 0.00139174 0.00217961
0.000804009 0.0229617 0.00279076
-0.00223328 -0.00253074 0.00532673
-8.16547e-05 -0.0013852 0.00503723
0.0 -0.0 -0.03
-0.00402602 0.0171563 -0.000487707
0.0 -0.0 -0.03
-0.000361947 0.0271294 -0.0155465
-0.00724677 0.0124728 0.00177167
0.00316848 0.0241697 -0.0104433
-0.0018514 -0.00550882 -0.00212058
0.00104253 0.0201685 -0.0206624
0.0 -0.0 -0.03
0.00949935 0.0180951 -0.0176935
0.0112666 0.0113737 -0.00824858
0.0103591 0.0207804 -0.00218637
0.0253194 -0.00385046 -0.0074489
-5.19827e-05 0.00846331 0.0571068
-0.001519 0.00154346 0.00153471
0.00312942 0.00325088 -0.00495951
0.0099203 -0.0178724 -0.0101387
0.0135062 -0.000749581 -0.0113281
-0.00304376 0.0149299 0.0086981
0.00606684 0.00987893 -0.0165621
0.00334199 0.0212954 0.00169762
-0.00246382 0.00485744 -0.00355983
0.00795311 0.0221603 -0.00467537
-0.0030411 0.00445357 -0.0019538