# vtk DataFile Version 3.0
LIGGGHTS particles timestep 7000000
ASCII
DATASET POLYDATA
POINTS 203 float
0.0226821 0.0150727 0.0134821
0.0243323 0.0222944 0.0156328
0.0205639 0.0227382 0.0139075
0.0168706 0.0233227 0.0146785
0.0310193 0.0211507 0.00772068
0.0180222 0.0142241 0.0148225
0.0204142 0.0235138 0.0134965
0.0205087 0.0238351 0.0148587
0.0282393 0.0192299 0.0158207
0.030434 0.0185914 0.00719256
0.019657 0.0145722 0.0156182
0.0294689 0.0151157 0.00982694
0.0214187 0.0148266 0.0146914
0.0163788 0.0226906 0.0140771
0.0235102 0.0218313 0.0159635
0.0206497 0.0240403 0.0128172
0.0193827 0.0223276 0.00873548
0.0171462 0.0239298 0.0165675
0.0226559 0.0228234 0.0147291
0.0227729 0.0218547 0.014949
0.0197999 0.0148532 0.0146693
0.031673 0.022958 0.00964963
0.154353 0.0180393 0.00580707
0.0236761 0.0228446 0.0151099
0.0187337 0.0236518 0.0140699
0.0196762 0.0241204 0.0127628
0.0163973 0.0236229 0.0135655
0.0323819 0.0231849 0.0127615
0.0282878 0.0160596 0.014578
0.0165181 0.0154915 0.0141616
0.0183633 0.0154792 0.0141428
0.0216276 0.0242558 0.0141559
0.03269 0.0224176 0.0142064
0.0307591 0.0199134 0.00731528
0.0195293 0.0236401 0.0148341
0.0240751 0.0168329 0.00780158
0.0319397 0.0233586 0.010995
0.0289949 0.0147635 0.0115322
0.0610421 0.0187951 0.0058864
0.0259739 0.0233939 0.0112112
0.0230726 0.0236367 0.0151068
0.0281046 0.0168324 0.0150938
0.0223348 0.0160485 0.0147755
0.0213089 0.022877 0.0136398
0.0210203 0.0227908 0.00938476
0.0278783 0.0177398 0.0155935
0.0156067 0.0230122 0.0135207
0.015302 0.0233267 0.0145793
0.0206952 0.0243663 0.0137666
0.0288018 0.0149324 0.0123464
0.0230772 0.0223884 0.0166754
0.0330128 0.0213164 0.0150788
0.0217115 0.0227885 0.0168641
0.0148141 0.0211989 0.0163207
0.0230964 0.0210592 0.0154619
0.0249478 0.021618 0.0160804
0.0241583 0.0216126 0.0166941
0.0233454 0.0154627 0.0141206
0.0143994 0.0229413 0.0150203
0.0257958 0.0228818 0.00942081
0.0188961 0.0174686 0.0164809
0.0210204 0.0141266 0.0133496
0.0182348 0.0143149 0.0124476
0.0217858 0.0221866 0.0146604
0.0299042 0.0163085 0.00816965
0.0214909 0.0238629 0.0132734
0.0197263 0.0217912 0.00816864
0.0191823 0.0234387 0.015777
0.00197664 0.0139506 0.0435188
0.0174361 0.0152361 0.0138581
0.014942 0.0220108 0.0148549
0.0187376 0.0240776 0.0130996
0.017241 0.0241102 0.0133408
0.0159051 0.0212815 0.0153489
0.0910328 0.0189119 0.00581756
0.0158167 0.0221987 0.015792
0.0159346 0.0220886 0.0147602
0.0174032 0.01463 0.0119904
0.0255657 0.020811 0.0164528
0.0160915 0.0239402 0.0145789
0.0194729 0.0209625 0.0163941
0.0236005 0.0187612 0.0159487
0.0224665 0.021292 0.0162051
0.0218871 0.0179359 0.0158118
0.0201714 0.0224853 0.00897579
0.0371768 0.0171282 0.00631277
0.0165472 0.0213752 0.0162138
0.0203518 0.0221696 0.0157625
0.0313323 0.0222042 0.00852643
0.0241817 0.0198255 0.016694
0.0206099 0.0152359 0.0151136
0.0241214 0.0153989 0.0155129
0.0163025 0.0161597 0.014874
0.0273949 0.0196928 0.0157647
0.0228855 0.0225576 0.0156715
0.0168103 0.0216992 0.0150675
0.0200779 0.0140258 0.0130311
0.0207631 0.0234354 0.0114732
0.0233473 0.0149 0.0103601
0.0155018 0.0196212 0.0159108
0.021168 0.0235268 0.0141969
0.0169321 0.0226041 0.0154741
0.0224155 0.0151242 0.0151529
0.0181184 0.0243966 0.0138154
0.0215266 0.0155029 0.0154203
0.0262451 0.0233213 0.0122289
0.0210272 0.0217194 0.0151254
0.0177432 0.0229518 0.0149928
0.0160862 0.0169744 0.0154296
0.021386 0.0234125 0.0123028
0.0152872 0.0205715 0.0156857
0.0198075 0.023217 0.0104164
0.0220982 0.0169187 0.0153998
0.0270116 0.0214234 0.0150388
0.00849768 0.0198159 0.0295226
0.0174444 0.0158763 0.0146275
0.0935581 0.0183371 0.00588747
0.021264 0.0206778 0.015654
0.0195064 0.0241214 0.0165752
0.118145 0.0201427 0.00585321
0.0284852 0.0155474 0.0139328
0.0174792 0.019305 0.0159342
0.0229711 0.0174581 0.0156486
0.0211941 0.0228515 0.0151203
0.019081 0.0140235 0.0129489
0.0147243 0.0226528 0.0141198
0.0246216 0.0193457 0.00717838
0.0190974 0.0153203 0.0152061
0.0232133 0.0164258 0.0151053
0.0219692 0.021314 0.0153367
0.0292493 0.0148589 0.0107218
0.0245694 0.0207281 0.0164738
0.0301273 0.0170863 0.0076572
0.0137942 0.0232155 0.0204781
0.0195482 0.0143359 0.0138205
0.0170615 0.0235823 0.0156338
0.0272097 0.0207392 0.0154692
0.0190392 0.0211919 0.00779575
0.0187873 0.0199594 0.00727476
0.0209414 0.0232037 0.012925
0.0188433 0.0146584 0.0144522
0.0276574 0.0185649 0.0158137
0.0219732 0.0183445 0.0178845
0.01285 0.0185108 0.0167184
0.0183225 0.0223728 0.0155691
0.0218174 0.0143385 0.0139151
0.0223637 0.0236127 0.0138863
0.0211708 0.023524 0.015861
0.0162729 0.0204104 0.0157333
0.0116598 0.0160349 0.0233389
0.0227077 0.0145909 0.0143581
0.0257785 0.0231924 0.0102302
0.0183793 0.014429 0.0135353
0.0177086 0.0235648 0.0141894
0.0247478 0.0161051 0.0158458
0.0147616 0.022078 0.0158473
0.026842 0.0233847 0.0114986
0.0174509 0.0142245 0.0132247
0.0171195 0.0147919 0.0146962
0.0201544 0.0234263 0.0119654
0.0164187 0.0142346 0.0138384
0.015099 0.0229702 0.0179961
0.0774097 0.0197225 0.00576285
0.0173137 0.0139413 0.014174
0.0221434 0.0231618 0.0160373
0.0221653 0.0227605 0.0138729
0.0178864 0.0240563 0.0125784
0.0181799 0.0234406 0.0157477
0.022521 0.0159253 0.0157496
0.018131 0.0164271 0.0151023
0.0164905 0.0194533 0.0159241
0.0205966 0.0145195 0.0141656
0.0296263 0.0155001 0.00903523
0.0181059 0.0152711 0.0150864
0.0258082 0.0198366 0.0166952
0.0266716 0.0222953 0.0140691
0.0233194 0.0200288 0.0158344
0.0171337 0.0208849 0.0155493
0.022455 0.0194421 0.0159265
0.0222444 0.0204319 0.0157294
0.0214915 0.0197362 0.015905
0.020102 0.023956 0.0157678
0.0231718 0.0203387 0.0167736
0.00842114 0.0323835 0.0435188
0.0298192 0.0147421 0.0113992
0.0187366 0.0230411 0.0149359
0.0144546 0.0188416 0.0167882
0.0816322 0.0177621 0.00599233
0.0388763 0.0190285 0.00572726
0.0193653 0.0224932 0.0154873
0.0201954 0.0229155 0.0151088
0.0235596 0.0153463 0.00930356
0.0174911 0.0219037 0.0159176
0.0219406 0.0222299 0.0157377
0.0483695 0.0188487 0.00601991
0.0160524 0.023 0.0151529
0.0239965 0.0169773 0.015433
0.0234386 0.0149234 0.0149574
0.0167455 0.014933 0.0132017
0.0185134 0.0240866 0.0164344
0.019629 0.0242502 0.013772
0.015181 0.022978 0.015643
0.0239976 0.0159596 0.0146943

VERTICES 203 406
1 0
1 1
1 2
1 3
1 4
1 5
1 6
1 7
1 8
1 9
1 10
1 11
1 12
1 13
1 14
1 15
1 16
1 17
1 18
1 19
1 20
1 21
1 22
1 23
1 24
1 25
1 26
1 27
1 28
1 29
1 30
1 31
1 32
1 33
1 34
1 35
1 36
1 37
1 38
1 39
1 40
1 41
1 42
1 43
1 44
1 45
1 46
1 47
1 48
1 49
1 50
1 51
1 52
1 53
1 54
1 55
1 56
1 57
1 58
1 59
1 60
1 61
1 62
1 63
1 64
1 65
1 66
1 67
1 68
1 69
1 70
1 71
1 72
1 73
1 74
1 75
1 76
1 77
1 78
1 79
1 80
1 81
1 82
1 83
1 84
1 85
1 86
1 87
1 88
1 89
1 90
1 91
1 92
1 93
1 94
1 95
1 96
1 97
1 98
1 99
1 100
1 101
1 102
1 103
1 104
1 105
1 106
1 107
1 108
1 109
1 110
1 111
1 112
1 113
1 114
1 115
1 116
1 117
1 118
1 119
1 120
1 121
1 122
1 123
1 124
1 125
1 126
1 127
1 128
1 129
1 130
1 131
1 132
1 133
1 134
1 135
1 136
1 137
1 138
1 139
1 140
1 141
1 142
1 143
1 144
1 145
1 146
1 147
1 148
1 149
1 150
1 151
1 152
1 153
1 154
1 155
1 156
1 157
1 158
1 159
1 160
1 161
1 162
1 163
1 164
1 165
1 166
1 167
1 168
1 169
1 170
1 171
1 172
1 173
1 174
1 175
1 176
1 177
1 178
1 179
1 180
1 181
1 182
1 183
1 184
1 185
1 186
1 187
1 188
1 189
1 190
1 191
1 192
1 193
1 194
1 195
1 196
1 197
1 198
1 199
1 200
1 201
1 202

POINT_DATA 203
SCALARS id int 1
LOOKUP_TABLE default
1
4
5
6
8
9
11
13
14
15
16
18
19
21
22
23
26
29
30
31
32
33
38
40
41
43
44
45
47
48
50
52
53
54
55
58
59
61
62
63
66
67
74
75
76
77
78
79
80
82
83
85
86
88
92
93
94
95
99
101
102
103
104
105
106
108
109
111
112
113
114
116
119
120
123
124
125
127
128
129
134
135
136
137
138
141
143
144
145
146
149
150
152
155
157
158
159
162
164
166
167
170
171
172
176
177
178
180
181
182
183
187
190
191
194
195
197
199
201
204
205
209
212
213
218
219
221
222
224
225
226
227
229
230
233
234
235
242
244
246
249
250
252
253
255
256
257
258
259
260
261
265
266
267
268
270
271
272
275
278
281
283
284
285
287
288
290
291
292
294
295
296
297
298
300
301
303
304
307
308
312
313
314
315
316
317
318
320
322
323
325
326
327
328
329
331
333
334
335
336
337
338
340

SCALARS type int 1
LOOKUP_TABLE default
1
1
1
1
1
1
1
1
1
1
1
1
1
1
1
1
1
1
1
1
1
1
1
1
1
1
1
1
1
1
1
1
1
1
1
1
1
1
1
1
1
1
1
1
1
1
1
1
1
1
1
1
1
1
1
1
1
1
1
1
1
1
1
1
1
1
1
1
1
1
1
1
1
1
1
1
1
1
1
1
1
1
1
1
1
1
1
1
1
1
1
1
1
1
1
1
1
1
1
1
1
1
1
1
1
1
1
1
1
1
1
1
1
1
1
1
1
1
1
1
1
1
1
1
1
1
1
1
1
1
1
1
1
1
1
1
1
1
1
1
1
1
1
1
1
1
1
1
1
1
1
1
1
1
1
1
1
1
1
1
1
1
1
1
1
1
1
1
1
1
1
1
1
1
1
1
1
1
1
1
1
1
1
1
1
1
1
1
1
1
1
1
1
1
1
1
1
1
1
1
1
1
1

SCALARS radius float 1
LOOKUP_TABLE default
0.0005
0.0005
0.0005
0.0005
0.0005
0.0005
0.0005
0.0005
0.0005
0.0005
0.0005
0.0005
0.0005
0.0005
0.0005
0.0005
0.0005
0.0005
0.0005
0.0005
0.0005
0.0005
0.0005
0.0005
0.0005
0.0005
0.0005
0.0005
0.0005
0.0005
0.0005
0.0005
0.0005
0.0005
0.0005
0.0005
0.0005
0.0005
0.0005
0.0005
0.0005
0.0005
0.0005
0.0005
0.0005
0.0005
0.0005
0.0005
0.0005
0.0005
0.0005
0.0005
0.0005
0.0005
0.0005
0.0005
0.0005
0.0005
0.0005
0.0005
0.0005
0.0005
0.0005
0.0005
0.0005
0.0005
0.0005
0.0005
0.0005
0.0005
0.0005
0.0005
0.0005
0.0005
0.0005
0.0005
0.0005
0.0005
0.0005
0.0005
0.0005
0.0005
0.0005
0.0005
0.0005
0.0005
0.0005
0.0005
0.0005
0.0005
0.0005
0.0005
0.0005
0.0005
0.0005
0.0005
0.0005
0.0005
0.0005
0.0005
0.0005
0.0005
0.0005
0.0005
0.0005
0.0005
0.0005
0.0005
0.0005
0.0005
0.0005
0.0005
0.0005
0.0005
0.0005
0.0005
0.0005
0.0005
0.0005
0.0005
0.0005
0.0005
0.0005
0.0005
0.0005
0.0005
0.0005
0.0005
0.0005
0.0005
0.0005
0.0005
0.0005
0.0005
0.0005
0.0005
0.0005
0.0005
0.0005
0.0005
0.0005
0.0005
0.0005
0.0005
0.0005
0.0005
0.0005
0.0005
0.0005
0.0005
0.0005
0.0005
0.0005
0.0005
0.0005
0.0005
0.0005
0.0005
0.0005
0.0005
0.0005
0.0005
0.0005
0.0005
0.0005
0.0005
0.0005
0.0005
0.0005
0.0005
0.0005
0.0005
0.0005
0.0005
0.0005
0.0005
0.0005
0.0005
0.0005
0.0005
0.0005
0.0005
0.0005
0.0005
0.0005
0.0005
0.0005
0.0005
0.0005
0.0005
0.0005
0.0005
0.0005
0.0005
0.0005
0.0005
0.0005
0.0005
0.0005
0.0005
0.0005
0.0005
0.0005

SCALARS mass float 1
LOOKUP_TABLE default
1.46608e-07
1.46608e-07
1.46608e-07
1.46608e-07
1.46608e-07
1.46608e-07
1.46608e-07
1.46608e-07
1.46608e-07
1.46608e-07
1.46608e-07
1.46608e-07
1.46608e-07
1.46608e-07
1.46608e-07
1.46608e-07
1.46608e-07
1.46608e-07
1.46608e-07
1.46608e-07
1.46608e-07
1.46608e-07
1.46608e-07
1.46608e-07
1.46608e-07
1.46608e-07
1.46608e-07
1.46608e-07
1.46608e-07
1.46608e-07
1.46608e-07
1.46608e-07
1.46608e-07
1.46608e-07
1.46608e-07
1.46608e-07
1.46608e-07
1.46608e-07
1.46608e-07
1.46608e-07
1.46608e-07
1.46608e-07
1.46608e-07
1.46608e-07
1.46608e-07
1.46608e-07
1.46608e-07
1.46608e-07
1.46608e-07
1.46608e-07
1.46608e-07
1.46608e-07
1.46608e-07
1.46608e-07
1.46608e-07
1.46608e-07
1.46608e-07
1.46608e-07
1.46608e-07
1.46608e-07
1.46608e-07
1.46608e-07
1.46608e-07
1.46608e-07
1.46608e-07
1.46608e-07
1.46608e-07
1.46608e-07
1.46608e-07
1.46608e-07
1.46608e-07
1.46608e-07
1.46608e-07
1.46608e-07
1.46608e-07
1.46608e-07
1.46608e-07
1.46608e-07
1.46608e-07
1.46608e-07
1.46608e-07
1.46608e-07
1.46608e-07
1.46608e-07
1.46608e-07
1.46608e-07
1.46608e-07
1.46608e-07
1.46608e-07
1.46608e-07
1.46608e-07
1.46608e-07
1.46608e-07
1.46608e-07
1.46608e-07
1.46608e-07
1.46608e-07
1.46608e-07
1.46608e-07
1.46608e-07
1.46608e-07
1.46608e-07
1.46608e-07
1.46608e-07
1.46608e-07
1.46608e-07
1.46608e-07
1.46608e-07
1.46608e-07
1.46608e-07
1.46608e-07
1.46608e-07
1.46608e-07
1.46608e-07
1.46608e-07
1.46608e-07
1.46608e-07
1.46608e-07
1.46608e-07
1.46608e-07
1.46608e-07
1.46608e-07
1.46608e-07
1.46608e-07
1.46608e-07
1.46608e-07
1.46608e-07
1.46608e-07
1.46608e-07
1.46608e-07
1.46608e-07
1.46608e-07
1.46608e-07
1.46608e-07
1.46608e-07
1.46608e-07
1.46608e-07
1.46608e-07
1.46608e-07
1.46608e-07
1.46608e-07
1.46608e-07
1.46608e-07
1.46608e-07
1.46608e-07
1.46608e-07
1.46608e-07
1.46608e-07
1.46608e-07
1.46608e-07
1.46608e-07
1.46608e-07
1.46608e-07
1.46608e-07
1.46608e-07
1.46608e-07
1.46608e-07
1.46608e-07
1.46608e-07
1.46608e-07
1.46608e-07
1.46608e-07
1.46608e-07
1.46608e-07
1.46608e-07
1.46608e-07
1.46608e-07
1.46608e-07
1.46608e-07
1.46608e-07
1.46608e-07
1.46608e-07
1.46608e-07
1.46608e-07
1.46608e-07
1.46608e-07
1.46608e-07
1.46608e-07
1.46608e-07
1.46608e-07
1.46608e-07
1.46608e-07
1.46608e-07
1.46608e-07
1.46608e-07
1.46608e-07
1.46608e-07
1.46608e-07
1.46608e-07
1.46608e-07
1.46608e-07
1.46608e-07
1.46608e-07
1.46608e-07
1.46608e-07
1.46608e-07
1.46608e-07
1.46608e-07
1.46608e-07
1.46608e-07
1.46608e-07
1.46608e-07
1.46608e-07

VECTORS velocity float
0.00496716 0.0014387 0.00198601
-0.00515548 0.00529787 -0.00179586
0.00321039 0.00787465 -0.00991752
-0.0015387 0.000425133 0.00422685
0.0021859 -0.0163367 -0.00666226
-0.00188574 -0.000412912 -0.00371981
0.00289697 0.00572611 -0.00405049
-0.00435542 0.000226991 0.00200636
0.00176541 0.0225402 -0.00161547
0.00196893 -0.0202828 0.00271945
0.00111364 0.000218425 0.000546353
0.000830241 -0.00730495 0.019749
0.00127664 0.00342517 -0.00310913
0.0128321 0.00404065 -0.00781773
-0.00380022 0.0032954 -3.54865e-05
0.000104881 0.00222928 -0.000664825
0.00104571 -0.0144761 -0.017646
0.00113928 0.000173101 -0.00021826
-0.00134888 0.0005579 0.000697029
0.000840189 -0.00121206 0.000315216
0.00105913 0.000311078 0.000737447
0.000997983 -0.0103125 -0.0227058
9.18933e-15 -2.32825e-14 1.89553e-13
0.000258273 0.0012594 0.00207299
0.0084234 0.00567224 -0.00724334
-0.000309751 0.000630943 -0.00100378
0.000411388 -0.000939577 -0.00145999
0.00158192 0.00632847 -0.0154825
0.000660581 0.0175408 0.0155848
0.00400549 0.00491021 0.00703811
0.00739995 0.00493603 0.00754294
-0.00134459 -0.000907242 -6.75066e-05
0.00169977 0.0128693 -0.0172451
0.000171971 -0.0245234 -0.00519268
-0.00321424 -0.00390111 0.00698407
0.000997281 -0.0200893 0.0125883
0.000181168 -0.0015706 -0.026263
0.00111723 0.000428676 0.0190445
6.09711e-15 2.72026e-14 1.94806e-13
0.000209829 -0.000158259 -0.0263702
0.000116405 -0.000160357 0.000841207
0.000220786 0.021536 0.0133158
0.00438545 0.00278081 -0.0024469
0.00849338 0.0058814 -0.00786362
-1.09331e-06 -0.00650432 -0.00898869
0.000128589 0.023536 0.00984216
0.000773804 -0.000212447 -0.000751731
5.74791e-05 0.000382875 0.000602022
0.000572155 0.00162442 -0.0012252
-0.000181513 0.00584177 0.0204346
-0.021989 0.0154457 -0.0233813
8.54052e-05 0.0224806 -0.0128576
0.0348876 -0.0701713 -0.00531698
0.0029998 0.0137792 -0.00606568
0.00675623 -0.00124418 -3.82468e-05
-0.00711248 0.0083087 -0.00511256
-0.0136938 0.0141448 -0.0135119
0.00291174 0.00169422 0.00334517
0.000476 -0.00382727 -0.00587126
0.000357417 -0.00120625 -0.00612905
-0.000428143 0.00289676 0.00211972
2.4689e-05 -2.49336e-05 -2.73252e-05
0.0101279 0.00897507 -0.0149018
0.00533872 0.0241285 -0.0269723
-4.07958e-06 -0.0179589 0.0127737
-0.000914746 -0.000433026 -0.000219914
0.000473861 -0.0137826 -0.0102056
0.00210992 0.0142467 0.00123268
-6.20967e-316 1.43976e-317 3.10717e-12
0.00619709 0.00526277 0.012336
0.00520889 -0.00301371 -0.0103122
-0.00080468 0.00461547 -0.0025098
0.00328664 -0.000648121 -0.00331794
0.00362259 0.00594209 -0.00455839
-1.39968e-05 -3.36632e-05 1.79741e-06
-0.0105149 0.0215783 -0.0109405
0.00135015 0.00419023 -0.00537521
-0.000608433 0.000574603 -0.00116144
-0.00429577 0.00583976 -0.00244376
-0.000561213 0.000915646 0.00223837
-8.08044e-09 0.0270374 -0.010625
0.0204964 -0.0659092 -0.0115044
-0.0010247 0.00863274 -0.00231758
0.00383684 0.00356135 -0.000727909
0.0010393 -0.0138514 -0.0210783
-0.000220938 0.00137993 -0.000532551
-0.0359518 0.00981237 -0.0350948
0.00810307 -0.00790209 0.0049163
0.000292321 -0.0167895 -0.0177533
0.00720955 0.00953988 -0.00350277
0.00156313 0.000449505 -0.000366585
0.000726838 -0.00108465 0.00241372
0.00433485 0.00589588 0.00491957
0.00107752 0.0172611 -0.00374543
-5.44858e-05 0.00419959 0.00498904
-0.00226711 0.00220162 -0.000841773
-0.000228608 -0.000644544 0.0013865
0.00170523 -0.000532602 -0.0155072
0.000336479 -0.00654536 0.0236903
0.00409947 0.00826948 -0.000499499
-0.00846959 -0.00220215 0.00255458
-0.000690488 0.000957469 0.000443894
-0.00225518 -0.00239356 0.000781015
0.000298053 -0.000161307 0.000370504
0.00367127 0.000489083 -0.000820415
0.000712237 0.00428305 -0.0239489
-0.00200187 0.00789041 -0.0369947
-0.00167594 -0.000902886 0.00390486
0.00153004 0.0114315 0.00580646
-0.000158391 0.000451667 -0.00119434
0.00437229 0.00650122 -0.00213758
0.00387837 -0.00382211 -0.0118762
0.00648969 -0.00215747 -0.00173101
0.00122114 0.0161361 -0.0129909
0.123363 -0.0530794 -0.269594
0.00294068 0.00885986 0.0105572
1.06029e-14 1.89555e-14 2.48644e-13
0.00796927 -0.00661968 -0.00955594
0.00520153 0.0141722 -0.0046824
-1.10835e-15 -1.75123e-14 8.40188e-14
0.000253836 0.0111571 0.0224979
0.00210858 0.0192799 -0.00124638
0.00369823 0.0039145 0.00224867
-0.00555556 0.0118332 -0.0178934
-0.000585508 -0.000214724 -0.00676095
0.0046884 0.0013115 -0.00485217
0.00257339 -0.0176212 -0.000254158
0.00296148 -0.000147903 0.00353775
-0.00144339 0.000228995 -0.00033608
-0.00199267 0.0130701 -0.0074581
1.13039e-05 -0.00581789 0.0214051
-0.00516005 0.0160281 -0.00547172
0.000275218 -0.0219942 0.0085507
0.0981281 -0.107483 -0.336338
0.000407301 -0.000413872 0.0015231
8.92914e-05 0.00032465 0.00032061
0.00107489 0.0147705 -0.00496116
0.00193317 -0.0184079 -0.00924394
0.00107108 -0.0208055 -0.00437289
-0.00165467 0.000844638 -0.0046204
0.000833768 -0.00084754 0.00173977
0.000467996 0.0242126 0.00236392
0.0191048 -0.0544837 -0.233794
-9.80602e-10 0.0288485 0.00296636
0.0104919 -0.00019912 0.00194092
0.000926808 0.00142183 -0.00187574
0.00118992 0.000512439 -0.000547289
-0.0103251 0.00161172 -0.00818048
0.00399838 0.00944353 -0.00263393
0.0881887 0.0608651 -0.258332
0.000144789 0.000409188 -4.98865e-05
0.00098744 -0.0050923 -0.016643
-0.000474603 0.00213191 -0.00730948
0.00102726 -0.000423283 0.00425845
-0.000582904 -0.0018577 0.00105286
-0.0121715 0.000291313 -0.035583
3.91712e-05 0.00100249 -0.0251215
-0.000435617 0.00297832 -0.00847161
0.00380195 -0.00542604 0.00154503
-0.00043424 0.00253221 -0.024591
-0.00028687 -0.00285072 0.00737256
0.106416 -0.113158 -0.308471
1.17348e-15 -2.14256e-14 7.9067e-14
0.0011159 -0.000265951 -0.00818119
-0.00331947 0.00899109 0.00448142
0.00432431 0.00333987 -0.00317487
0.000473553 -0.00625181 -0.00310124
-0.000175452 -0.000439107 0.00430487
0.0125837 0.0120821 -0.00320876
0.00140111 0.0144721 0.010691
0.00161208 0.0101534 -0.00123322
0.000686762 -0.000257904 0.000503049
0.00241941 -0.0078746 0.00617504
0.00289327 0.00163521 0.00585317
-0.000191605 0.0269813 -0.0040989
-0.000407523 0.0180228 -0.0181924
0.00149972 0.0141756 -0.00275292
0.00629078 0.00608208 -0.00175742
-2.22484e-05 0.0238651 -0.0022028
0.00745487 0.00343029 -0.00219364
4.65718e-06 0.0238687 -0.00392563
-0.00520634 0.00124931 0.00685916
0.00460799 -0.00477787 0.00399793
-9.72922e-317 -9.70169e-317 -1.69736e-12
0.00184416 -0.00368095 0.0028402
-0.00138832 -0.00526339 0.00917815
4.38438e-07 0.0292563 0.00131275
1.52966e-14 5.18668e-14 2.19689e-13
1.55106e-15 -7.41978e-15 3.66652e-14
0.00801329 -0.00109525 0.00364686
-0.00348994 -0.000824033 0.00136368
0.00023559 -0.013422 0.0215546
0.00511249 0.00464085 -0.000859959
-0.00595989 0.00325931 0.0065086
-8.62996e-15 1.85453e-14 1.92617e-13
-0.00200478 0.00091715 0.0028151
0.00650117 -0.00381816 -0.00375249
0.000381009 -0.00048518 0.00208484
0.00248038 0.00517199 0.016065
0.000543338 -0.000572741 -0.000160551
-0.00481125 0.00557446 0.00637312
-0.00425582 -0.0013195 -0.000535673
0.00157633 0.003858 0.00515618

VECTORS force float
7.88324e-07 1.6692e-06 9.04935e-07
-3.50908e-07 -1.32266e-06 1.0674e-06
7.20044e-07 -1.34976e-06 2.97335e-06
-4.65593e-07 1.2053e-05 -1.92196e-06
3.70739e-08 -2.3897e-07 -7.80487e-08
-3.84904e-07 -8.98534e-08 -1.20139e-06
5.69149e-07 -9.50469e-07 1.70816e-06
-1.46538e-06 -2.46434e-06 5.20905e-06
-4.38074e-06 8.99983e-07 -7.40304e-07
-2.08281e-08 -5.27579e-08 3.2144e-08
-5.76017e-07 -3.04514e-07 2.47691e-07
2.25441e-08 4.54874e-08 -5.94473e-08
4.43078e-08 3.28259e-07 1.74211e-07
-2.77741e-07 8.85702e-07 -1.15102e-06
-1.23746e-06 8.19251e-08 1.69003e-06
-2.3492e-07 -3.43224e-07 3.20192e-08
-6.21148e-10 1.40204e-07 2.26941e-07
-2.07907e-07 4.18071e-07 5.24861e-07
3.05595e-06 -4.08542e-07 -8.40412e-06
0.0 0.0 -1.43822e-06
2.36208e-07 -1.97007e-07 -5.10999e-08
-4.38248e-08 6.92278e-10 1.27123e-08
1.82086e-19 9.61382e-20 4.44692e-21
-2.01057e-07 3.49338e-07 -2.82821e-06
-5.95142e-07 1.44357e-06 -5.58799e-06
-1.86064e-07 -9.11298e-08 3.94142e-07
-1.24135e-06 -9.48986e-08 -2.68233e-07
4.71669e-08 -4.08037e-08 1.32134e-07
-6.95018e-09 2.49219e-08 -4.89172e-09
1.2647e-07 -2.62449e-07 -4.02167e-07
4.02302e-07 2.03809e-08 -9.52753e-08
-2.31644e-07 -2.02656e-07 4.36648e-08
-2.16554e-08 2.05732e-08 -4.90663e-08
-7.43733e-10 -9.84068e-09 1.27822e-08
-7.12674e-06 2.19205e-06 -4.96493e-06
-2.37485e-08 -3.09382e-08 3.18867e-08
-7.72948e-10 -1.5486e-08 -4.50055e-09
-5.62422e-09 1.07436e-08 -5.73128e-08
-3.88444e-21 -5.45277e-21 8.47033e-22
9.87123e-08 9.87629e-09 8.63478e-07
-4.52792e-07 2.13236e-07 -1.39053e-06
-2.68773e-09 1.48165e-08 -6.7304e-09
1.35644e-05 5.7503e-06 1.76535e-05
-1.53297e-06 5.34483e-07 -6.13709e-07
3.12102e-06 1.33612e-07 5.12483e-07
-2.92397e-09 6.0937e-08 -2.20227e-08
-2.90525e-07 -4.9707e-07 -1.68051e-06
-2.17225e-06 1.83625e-06 5.35196e-07
-1.69108e-08 -1.80511e-07 -7.25155e-09
3.82965e-09 3.48655e-08 1.9661e-08
-1.4257e-07 -3.03426e-07 -1.23975e-06
-6.72171e-10 -5.02683e-09 -1.50365e-08
0.0 0.0 -1.43822e-06
6.62659e-07 3.21187e-06 3.91598e-06
-2.19039e-07 1.48437e-06 -2.6464e-07
-2.04656e-07 1.79936e-07 -9.0908e-08
-5.27135e-07 5.59574e-07 -4.30662e-07
1.61217e-06 -3.8669e-07 1.10931e-06
-1.99416e-06 -6.76134e-07 1.47004e-06
5.58036e-08 6.23e-08 1.34152e-07
-2.77197e-08 1.21572e-07 5.47734e-08
-9.03908e-08 4.02659e-08 -3.51843e-07
7.3995e-08 7.34473e-08 -1.21801e-07
-2.89687e-06 -4.96306e-06 6.86803e-06
-7.43352e-09 3.40962e-08 1.17433e-08
-3.82707e-07 5.61935e-07 -6.87977e-07
-1.75227e-07 1.33022e-06 8.53348e-07
0.0 0.0 -1.43822e-06
1.06685e-318 2.4703e-320 0.0
1.45631e-06 -1.26285e-06 6.01848e-07
0.0 0.0 -1.43822e-06
-2.12599e-06 -1.88537e-06 5.39118e-06
1.52775e-06 2.90587e-07 -2.81093e-06
-8.94622e-07 -2.62017e-06 3.86629e-06
3.16854e-08 1.87569e-08 2.30186e-10
0.0 0.0 -1.43822e-06
-2.70993e-07 -1.71185e-06 8.46127e-07
7.07867e-09 -2.17266e-08 5.40959e-08
-1.11536e-07 1.73028e-07 -3.67045e-08
-5.56356e-06 1.20039e-06 2.58687e-06
-1.81382e-14 -8.57454e-09 -2.16395e-08
-5.0106e-07 1.22021e-07 -1.4109e-06
0.0 0.0 -1.43822e-06
-7.19686e-08 5.65765e-08 3.82972e-08
-3.69459e-08 -4.0358e-07 -4.02882e-07
2.68596e-09 -1.67759e-08 6.47427e-09
0.0 0.0 -1.43822e-06
-1.94022e-07 1.18793e-06 -7.74915e-07
-6.42723e-10 -1.5135e-08 4.31843e-09
-2.51118e-07 7.54499e-07 -3.03513e-08
-2.4885e-07 -2.88464e-07 -3.00333e-07
-3.64437e-07 -4.25731e-08 -7.35406e-07
5.31236e-08 -1.99765e-07 -1.59332e-07
2.81003e-08 -7.82547e-07 -2.30276e-07
0.0 0.0 -1.43822e-06
-2.50148e-07 -2.53575e-08 4.15861e-07
2.88354e-07 -3.64021e-09 -4.39756e-08
-2.28596e-08 1.87527e-08 -1.47451e-08
-1.21472e-09 1.10058e-08 1.26405e-08
9.4162e-07 -3.3602e-06 1.24665e-06
-2.27072e-06 -9.36983e-07 1.85736e-06
-1.44376e-07 6.27664e-08 3.31129e-07
0.0 0.0 -1.43822e-06
-1.79887e-07 1.60933e-06 1.86575e-07
-7.28269e-08 -3.55399e-07 -3.06874e-07
4.39705e-06 1.2774e-06 1.23642e-05
0.0 0.0 -1.43822e-06
8.64671e-07 2.21603e-06 4.82785e-06
-6.31482e-08 -5.41301e-08 -2.78435e-08
-5.35413e-07 8.18765e-08 -3.38581e-07
2.73065e-07 -3.27158e-06 -6.631e-07
3.86765e-06 4.83174e-07 6.66517e-07
-6.53803e-09 1.14127e-08 4.00493e-08
8.91219e-10 -9.31925e-09 -9.37735e-09
1.90481e-07 3.48717e-08 -1.21441e-06
-7.41618e-09 -3.27487e-08 -1.31131e-06
1.41349e-20 -7.74241e-21 2.11758e-22
0.0 0.0 -1.43822e-06
0.0 0.0 -1.43822e-06
-2.06001e-20 3.17637e-22 -4.23516e-22
3.41035e-09 8.72198e-09 -4.98169e-09
-1.67111e-06 -9.01086e-07 -1.85245e-07
-6.96727e-08 3.98293e-08 3.12771e-08
0.0 0.0 -1.43822e-06
0.0 0.0 -1.43822e-06
-2.4738e-07 6.54872e-07 -1.35236e-06
-1.57392e-08 -7.36679e-08 1.21338e-08
-5.71374e-07 2.82986e-07 4.30511e-07
2.57477e-08 -1.92326e-07 -3.86535e-07
0.0 0.0 -1.43822e-06
-3.57073e-09 1.95487e-08 -5.2905e-08
-1.55045e-07 5.90342e-07 -1.49336e-07
2.60588e-08 8.61225e-09 1.99749e-08
3.17946e-07 -2.57294e-07 -9.54598e-07
1.76646e-07 1.74345e-07 1.22303e-07
4.47997e-07 2.0766e-07 7.12974e-07
-2.90725e-09 -6.48269e-08 4.19047e-08
5.42973e-08 3.316e-07 2.35797e-07
-2.37524e-10 -2.62317e-08 2.81029e-08
-5.52697e-07 3.99474e-07 -1.96603e-07
-1.18345e-07 -1.00258e-07 -2.4661e-07
1.07567e-07 9.37458e-09 -1.88219e-07
0.0 0.0 -1.43822e-06
-3.36779e-13 2.3441e-09 -2.31105e-08
-2.07039e-07 1.33441e-06 -8.67753e-07
7.34603e-08 6.25931e-08 2.34679e-07
2.81356e-07 2.99613e-07 -1.23089e-06
1.86014e-08 -4.4671e-07 -1.17955e-06
-1.5001e-07 2.81353e-07 6.09144e-07
0.0 0.0 -1.43822e-06
-5.00014e-08 1.44864e-07 -1.23999e-06
-1.16547e-10 2.61922e-08 1.02637e-07
0.0 0.0 -1.43822e-06
4.17236e-07 -2.28096e-07 -2.18401e-07
-5.26765e-08 -8.88013e-08 -1.86921e-08
3.39103e-07 4.43796e-06 -1.13437e-06
-1.07519e-06 -6.06677e-07 8.36606e-07
0.0 0.0 -1.43822e-06
-1.8541e-07 2.1628e-07 -7.19711e-07
3.73144e-08 -2.60474e-08 6.86723e-08
-5.20117e-06 3.78749e-06 -8.67773e-06
0.0 0.0 -1.43822e-06
-2.39813e-19 3.75871e-21 4.65868e-21
5.23267e-06 -3.92517e-06 6.09162e-06
4.27167e-06 -1.46638e-05 -1.1578e-05
-8.91115e-07 2.90832e-06 -5.76768e-06
-8.71709e-08 -6.26963e-09 -5.53963e-08
2.44636e-06 3.55968e-06 5.61981e-06
4.97831e-06 -8.43305e-06 4.06594e-05
0.0 0.0 -1.43822e-06
-3.09405e-07 4.76132e-07 1.27357e-06
1.72527e-08 -3.46639e-07 -1.81144e-07
3.43006e-08 8.95704e-08 -1.47037e-07
-8.04249e-07 2.32607e-07 -7.43752e-07
4.31452e-08 5.38708e-07 -9.94017e-08
2.41595e-08 -2.10695e-08 -8.34178e-09
1.1889e-07 2.1531e-07 -1.02144e-07
-6.40464e-07 -1.58947e-06 3.18867e-07
2.63738e-08 2.2147e-07 -3.13775e-08
-2.53376e-07 1.0471e-06 -2.19102e-07
6.16757e-09 -6.3689e-09 -2.11244e-08
0.0 0.0 -1.43822e-06
-1.68997e-07 6.15352e-07 -4.40264e-07
0.0 0.0 0.0
-7.9055e-09 2.80112e-09 -1.78931e-07
-2.57483e-06 -3.83658e-06 7.00021e-06
-8.7981e-10 1.21901e-09 -2.61852e-08
1.2004e-20 -1.11702e-20 1.90582e-21
1.60936e-20 3.49401e-21 -2.11758e-22
1.46417e-06 -1.01528e-05 6.34854e-06
0.0 0.0 -1.43822e-06
-1.05995e-09 6.41889e-09 1.3634e-08
3.5982e-07 -8.69311e-07 4.54731e-07
-7.32616e-06 -8.41517e-06 7.87631e-07
-4.67192e-21 2.55698e-20 -3.17637e-21
-2.51299e-06 -1.75213e-07 2.87401e-06
-7.72674e-08 -1.60749e-07 -5.56215e-08
7.9297e-07 -7.42245e-07 2.35517e-06
-1.9919e-07 1.49384e-07 -1.18413e-06
0.0 0.0 -1.43822e-06
0.0 0.0 -1.43822e-06
4.76419e-07 -2.16905e-07 -1.29141e-06
-3.22782e-07 3.95633e-08 -1.79252e-07
