# vtk DataFile Version 3.0
LIGGGHTS particles timestep 1000000
ASCII
DATASET POLYDATA
POINTS 169 float
0.0214685 0.0241245 0.0142108
0.0177842 0.0236098 0.0145143
0.0249807 0.0215831 0.0161071
0.0178721 0.0142078 0.0128302
0.0211418 0.0141724 0.0134074
0.0175733 0.0153499 0.0139652
0.020146 0.0142045 0.0134909
0.0250994 0.0165164 0.0162314
0.0230707 0.0233642 0.0146562
0.0201329 0.0214641 0.00791344
0.01655 0.0228356 0.0138554
0.0212212 0.0234294 0.0121567
0.0166486 0.0238672 0.0136957
0.0174698 0.02355 0.0155073
0.0234318 0.0195331 0.0159172
0.0173866 0.0159668 0.0147297
0.0237046 0.0229103 0.0152857
0.020922 0.0225222 0.00895659
0.0174252 0.0240475 0.0130922
0.0228897 0.0178826 0.0157864
0.0214789 0.0231833 0.0136006
0.0183358 0.0138055 0.0136197
0.0192271 0.0243916 0.0135531
0.0208163 0.0232347 0.0103398
0.0232549 0.0164061 0.0150708
0.0168552 0.0225739 0.0155749
0.0204408 0.0202644 0.00740477
0.0236419 0.0185528 0.0159196
0.0177285 0.0226281 0.0150753
0.020335 0.024401 0.0137064
0.0197339 0.0236653 0.0140177
0.0221855 0.0232554 0.0130231
0.0241608 0.0160698 0.0148134
0.0189539 0.0163899 0.00805821
0.021703 0.0225323 0.0142385
0.0214469 0.0239331 0.0132302
0.0234912 0.0225123 0.0143088
0.0205301 0.0151693 0.0150132
0.0227718 0.0230918 0.0155991
0.0221912 0.0236986 0.0150107
0.0160161 0.0231449 0.0151979
0.0238031 0.0171237 0.0155024
0.0158722 0.0235895 0.0142859
0.0186983 0.0148147 0.0128519
0.0256971 0.0195079 0.00719964
0.0226699 0.0221781 0.0146955
0.0303786 0.0255428 0.0356154
0.0219476 0.0143901 0.0139581
0.0187449 0.0238245 0.0142609
0.015048 0.023236 0.0147284
0.0158042 0.0225145 0.0144097
0.0223668 0.0236942 0.0140235
0.0261765 0.0214456 0.00800039
0.0222682 0.022811 0.0138007
0.0163318 0.00682598 0.0347688
0.0228497 0.0146333 0.0144366
0.0167956 0.0235016 0.0146681
0.0199281 0.0241125 0.0128357
0.0232168 0.0204888 0.0157028
0.0192828 0.017818 0.0073623
0.0180507 0.0146219 0.0119379
0.0610421 0.0187951 0.0058864
0.0163455 0.0218385 0.0160329
0.0175811 0.0167513 0.0153187
0.0222579 0.0207809 0.0156108
0.0238194 0.0218359 0.0149669
0.016767 0.0222542 0.0146317
0.0232196 0.0222028 0.0157992
0.0163326 0.0232758 0.0129539
0.0243808 0.0222581 0.0156778
0.0173519 0.0218678 0.0161261
0.0169833 0.0174767 0.0156644
0.0185336 0.0236215 0.0152166
0.0184101 0.0240901 0.0129809
0.018695 0.022618 0.0153335
0.0196747 0.0195062 0.00722225
0.0213012 0.0233046 0.0147577
0.0206834 0.0227315 0.015296
0.0220268 0.0216779 0.0152176
0.0179667 0.0243949 0.0138397
0.0229938 0.021374 0.0152876
0.0230071 0.02298 0.0135781
0.0190515 0.0146227 0.0119364
0.0193209 0.0136441 0.0135612
0.0247641 0.0167501 0.0153188
0.0157724 0.0191088 0.0167982
0.0208441 0.0219601 0.0159114
0.0183357 0.0173422 0.0156043
0.0188662 0.0223218 0.017787
0.0171851 0.0206522 0.0157155
0.0166541 0.023419 0.0160766
0.0182514 0.0229185 0.0170692
0.0179622 0.0216526 0.0151418
0.0210886 0.0229728 0.0163183
0.0183482 0.0186268 0.0159265
0.0207189 0.023656 0.0156745
0.0166429 0.019036 0.0159475
0.0249797 0.0206557 0.016481
0.0188728 0.0240117 0.0161789
0.0212326 0.022153 0.0171101
0.0173838 0.0183622 0.0159016
0.0181624 0.0211822 0.0165386
0.0171609 0.0210148 0.0166475
0.0197513 0.0237805 0.0154463
0.0191697 0.0163879 0.0150546
0.0155822 0.0230051 0.0135205
0.0205414 0.0239265 0.0145622
0.019262 0.0146366 0.0136685
0.0217171 0.0164833 0.0161072
0.0160048 0.0218011 0.0150847
0.018352 0.0147317 0.0140718
0.0184018 0.019625 0.0159047
0.017258 0.0231214 0.0132384
0.0182605 0.0232153 0.0161142
0.015173 0.0225252 0.0154812
0.0191512 0.0154873 0.0141823
0.0173823 0.0228231 0.0164528
0.0243063 0.02011 0.0158317
0.0171643 0.0239973 0.0167601
0.0240439 0.0210174 0.0154951
0.0234951 0.0155642 0.0142645
0.0224696 0.0216201 0.0161115
0.0185475 0.0202671 0.0166573
0.0215251 0.0152216 0.0151152
0.0198982 0.0144717 0.0144221
0.0187925 0.0191158 0.0166773
0.0210262 0.0208862 0.0184486
0.022714 0.0154154 0.0153497
0.0208409 0.0158805 0.0156968
0.0174036 0.0196834 0.0159013
0.0194299 0.0150876 0.0150555
0.0196976 0.0194351 0.0185016
0.0191456 0.0211445 0.0167479
0.022069 0.0231766 0.0163069
0.0220337 0.0143758 0.0149542
0.024542 0.0191357 0.0159554
0.0208806 0.0145895 0.0142778
0.0170526 0.0141481 0.013522
0.0213313 0.0181362 0.0189002
0.0194846 0.0199185 0.0166779
0.0181647 0.0207951 0.0156115
0.019291 0.0218022 0.0159762
0.0175995 0.0219499 0.0171056
0.024556 0.0181287 0.0158495
0.0196728 0.021654 0.0188828
0.019886 0.0165115 0.0183426
0.0193192 0.0231712 0.0147818
0.0190317 0.0223456 0.0167762
0.0183826 0.0159169 0.0146564
0.0203493 0.0204089 0.0165698
0.0170963 0.0187149 0.0167937
0.0219414 0.0226878 0.0152159
0.0211345 0.0211155 0.0163727
0.0208805 0.0222565 0.0188749
0.0201355 0.0213331 0.0162345
0.0145184 0.0187332 0.0167393
0.016982 0.021518 0.0152657
0.0183319 0.0220665 0.0160845
0.0201594 0.0225765 0.0163511
0.0214529 0.0189715 0.0167853
0.0197143 0.0225371 0.0154466
0.019812 0.0158158 0.0156245
0.0224772 0.0198353 0.0158754
0.0226815 0.0188584 0.0159391
0.0192559 0.0230882 0.016144
0.0158744 0.0180443 0.0170545
0.0164381 0.0200226 0.0159131
0.0162178 0.0209578 0.0155762
0.01752 0.0226622 0.0140871

VERTICES 169 338
1 0
1 1
1 2
1 3
1 4
1 5
1 6
1 7
1 8
1 9
1 10
1 11
1 12
1 13
1 14
1 15
1 16
1 17
1 18
1 19
1 20
1 21
1 22
1 23
1 24
1 25
1 26
1 27
1 28
1 29
1 30
1 31
1 32
1 33
1 34
1 35
1 36
1 37
1 38
1 39
1 40
1 41
1 42
1 43
1 44
1 45
1 46
1 47
1 48
1 49
1 50
1 51
1 52
1 53
1 54
1 55
1 56
1 57
1 58
1 59
1 60
1 61
1 62
1 63
1 64
1 65
1 66
1 67
1 68
1 69
1 70
1 71
1 72
1 73
1 74
1 75
1 76
1 77
1 78
1 79
1 80
1 81
1 82
1 83
1 84
1 85
1 86
1 87
1 88
1 89
1 90
1 91
1 92
1 93
1 94
1 95
1 96
1 97
1 98
1 99
1 100
1 101
1 102
1 103
1 104
1 105
1 106
1 107
1 108
1 109
1 110
1 111
1 112
1 113
1 114
1 115
1 116
1 117
1 118
1 119
1 120
1 121
1 122
1 123
1 124
1 125
1 126
1 127
1 128
1 129
1 130
1 131
1 132
1 133
1 134
1 135
1 136
1 137
1 138
1 139
1 140
1 141
1 142
1 143
1 144
1 145
1 146
1 147
1 148
1 149
1 150
1 151
1 152
1 153
1 154
1 155
1 156
1 157
1 158
1 159
1 160
1 161
1 162
1 163
1 164
1 165
1 166
1 167
1 168

POINT_DATA 169
SCALARS id int 1
LOOKUP_TABLE default
1
2
3
4
5
6
7
8
9
10
11
12
13
14
15
16
17
18
19
20
21
22
23
24
25
26
27
28
29
30
31
32
33
34
35
36
37
38
39
40
41
42
43
44
45
46
47
48
49
50
51
52
53
54
55
56
57
58
59
60
61
62
63
64
65
66
67
68
69
70
71
72
73
74
75
76
77
78
79
80
81
82
83
84
85
86
87
88
89
90
91
92
93
94
95
96
97
99
100
101
102
103
104
105
106
107
108
109
110
111
112
113
114
115
116
117
118
119
120
121
122
123
124
125
126
127
128
129
130
131
132
133
134
135
136
137
138
139
140
141
142
143
144
145
146
147
148
149
150
151
152
153
154
155
156
157
158
159
160
161
162
163
164
165
166
167
168
169
170

SCALARS type int 1
LOOKUP_TABLE default
1
1
1
1
1
1
1
1
1
1
1
1
1
1
1
1
1
1
1
1
1
1
1
1
1
1
1
1
1
1
1
1
1
1
1
1
1
1
1
1
1
1
1
1
1
1
1
1
1
1
1
1
1
1
1
1
1
1
1
1
1
1
1
1
1
1
1
1
1
1
1
1
1
1
1
1
1
1
1
1
1
1
1
1
1
1
1
1
1
1
1
1
1
1
1
1
1
1
1
1
1
1
1
1
1
1
1
1
1
1
1
1
1
1
1
1
1
1
1
1
1
1
1
1
1
1
1
1
1
1
1
1
1
1
1
1
1
1
1
1
1
1
1
1
1
1
1
1
1
1
1
1
1
1
1
1
1
1
1
1
1
1
1
1
1
1
1
1
1

SCALARS radius float 1
LOOKUP_TABLE default
0.0005
0.0005
0.0005
0.0005
0.0005
0.0005
0.0005
0.0005
0.0005
0.0005
0.0005
0.0005
0.0005
0.0005
0.0005
0.0005
0.0005
0.0005
0.0005
0.0005
0.0005
0.0005
0.0005
0.0005
0.0005
0.0005
0.0005
0.0005
0.0005
0.0005
0.0005
0.0005
0.0005
0.0005
0.0005
0.0005
0.0005
0.0005
0.0005
0.0005
0.0005
0.0005
0.0005
0.0005
0.0005
0.0005
0.0005
0.0005
0.0005
0.0005
0.0005
0.0005
0.0005
0.0005
0.0005
0.0005
0.0005
0.0005
0.0005
0.0005
0.0005
0.0005
0.0005
0.0005
0.0005
0.0005
0.0005
0.0005
0.0005
0.0005
0.0005
0.0005
0.0005
0.0005
0.0005
0.0005
0.0005
0.0005
0.0005
0.0005
0.0005
0.0005
0.0005
0.0005
0.0005
0.0005
0.0005
0.0005
0.0005
0.0005
0.0005
0.0005
0.0005
0.0005
0.0005
0.0005
0.0005
0.0005
0.0005
0.0005
0.0005
0.0005
0.0005
0.0005
0.0005
0.0005
0.0005
0.0005
0.0005
0.0005
0.0005
0.0005
0.0005
0.0005
0.0005
0.0005
0.0005
0.0005
0.0005
0.0005
0.0005
0.0005
0.0005
0.0005
0.0005
0.0005
0.0005
0.0005
0.0005
0.0005
0.0005
0.0005
0.0005
0.0005
0.0005
0.0005
0.0005
0.0005
0.0005
0.0005
0.0005
0.0005
0.0005
0.0005
0.0005
0.0005
0.0005
0.0005
0.0005
0.0005
0.0005
0.0005
0.0005
0.0005
0.0005
0.0005
0.0005
0.0005
0.0005
0.0005
0.0005
0.0005
0.0005
0.0005
0.0005
0.0005
0.0005
0.0005
0.0005

SCALARS mass float 1
LOOKUP_TABLE default
1.46608e-07
1.46608e-07
1.46608e-07
1.46608e-07
1.46608e-07
1.46608e-07
1.46608e-07
1.46608e-07
1.46608e-07
1.46608e-07
1.46608e-07
1.46608e-07
1.46608e-07
1.46608e-07
1.46608e-07
1.46608e-07
1.46608e-07
1.46608e-07
1.46608e-07
1.46608e-07
1.46608e-07
1.46608e-07
1.46608e-07
1.46608e-07
1.46608e-07
1.46608e-07
1.46608e-07
1.46608e-07
1.46608e-07
1.46608e-07
1.46608e-07
1.46608e-07
1.46608e-07
1.46608e-07
1.46608e-07
1.46608e-07
1.46608e-07
1.46608e-07
1.46608e-07
1.46608e-07
1.46608e-07
1.46608e-07
1.46608e-07
1.46608e-07
1.46608e-07
1.46608e-07
1.46608e-07
1.46608e-07
1.46608e-07
1.46608e-07
1.46608e-07
1.46608e-07
1.46608e-07
1.46608e-07
1.46608e-07
1.46608e-07
1.46608e-07
1.46608e-07
1.46608e-07
1.46608e-07
1.46608e-07
1.46608e-07
1.46608e-07
1.46608e-07
1.46608e-07
1.46608e-07
1.46608e-07
1.46608e-07
1.46608e-07
1.46608e-07
1.46608e-07
1.46608e-07
1.46608e-07
1.46608e-07
1.46608e-07
1.46608e-07
1.46608e-07
1.46608e-07
1.46608e-07
1.46608e-07
1.46608e-07
1.46608e-07
1.46608e-07
1.46608e-07
1.46608e-07
1.46608e-07
1.46608e-07
1.46608e-07
1.46608e-07
1.46608e-07
1.46608e-07
1.46608e-07
1.46608e-07
1.46608e-07
1.46608e-07
1.46608e-07
1.46608e-07
1.46608e-07
1.46608e-07
1.46608e-07
1.46608e-07
1.46608e-07
1.46608e-07
1.46608e-07
1.46608e-07
1.46608e-07
1.46608e-07
1.46608e-07
1.46608e-07
1.46608e-07
1.46608e-07
1.46608e-07
1.46608e-07
1.46608e-07
1.46608e-07
1.46608e-07
1.46608e-07
1.46608e-07
1.46608e-07
1.46608e-07
1.46608e-07
1.46608e-07
1.46608e-07
1.46608e-07
1.46608e-07
1.46608e-07
1.46608e-07
1.46608e-07
1.46608e-07
1.46608e-07
1.46608e-07
1.46608e-07
1.46608e-07
1.46608e-07
1.46608e-07
1.46608e-07
1.46608e-07
1.46608e-07
1.46608e-07
1.46608e-07
1.46608e-07
1.46608e-07
1.46608e-07
1.46608e-07
1.46608e-07
1.46608e-07
1.46608e-07
1.46608e-07
1.46608e-07
1.46608e-07
1.46608e-07
1.46608e-07
1.46608e-07
1.46608e-07
1.46608e-07
1.46608e-07
1.46608e-07
1.46608e-07
1.46608e-07
1.46608e-07
1.46608e-07
1.46608e-07
1.46608e-07
1.46608e-07
1.46608e-07
1.46608e-07
1.46608e-07
1.46608e-07
1.46608e-07

VECTORS velocity float
-0.00142876 0.00052684 0.000862341
5.32324e-05 0.024807 0.0681679
0.00113251 -0.00021766 0.00215434
0.00149288 -0.00072066 0.000790925
6.06595e-06 -0.000419552 0.000853784
0.00373756 0.00669261 0.00917082
-0.000170043 -0.000157237 5.64844e-06
2.91212e-05 -0.003122 0.0045959
0.000643285 -0.00327185 -0.00402163
0.00207181 -0.00948067 -0.00806748
0.00317079 -0.000216511 -0.00475999
0.00278789 -0.00145506 -0.00294899
0.000198995 0.00201689 -0.00183235
-0.0357949 -0.0255673 0.0829292
0.00528822 0.00908068 -0.000484723
0.00592537 0.00872476 0.00838459
-0.00221046 0.000537491 0.000531643
-0.00069561 -0.00143459 -0.00419754
0.000558603 0.000357331 -0.000700269
0.0059677 -0.000257922 0.000167526
0.00735285 -0.00221558 0.0035185
-0.000152527 0.000189941 -0.000394903
-0.012349 0.00450322 0.00939844
0.00134695 -0.00512333 -0.0166872
0.00467661 0.00473485 0.00313776
-0.00157135 0.0090886 0.000956272
1.68711e-06 -0.0240306 -0.0081741
0.00487616 0.00549813 0.0017352
-0.00139263 0.0166534 -0.0104245
0.00144826 1.03653e-05 -0.00430239
-0.000937468 0.000655591 -0.00647593
0.000721456 -0.00111021 0.00132583
0.0044966 0.00290183 0.00491032
0.000709261 -0.0163466 0.0135675
0.00972113 -0.00251648 0.00587751
-0.00210665 0.000114195 0.0018396
0.000541125 -0.00389536 -0.00214776
-0.00597361 -0.00253125 -0.000139329
0.00573423 0.00214422 0.00874678
-0.00565507 -0.00241269 -0.00722632
-0.0274162 0.0118618 0.0184624
0.0073708 0.005429 0.00253085
0.000823525 0.000344481 0.00185085
-0.00321901 -0.0015601 -0.000527685
0.00102427 -0.0203739 -0.00338285
0.00230991 -0.0207616 -0.0140957
-0.0884222 -0.0428097 -0.246958
0.000284786 -0.000103092 0.000460618
0.0220085 0.0256077 0.0666287
-0.000698856 -0.000630991 0.000542121
0.00388983 0.00571094 -0.000835317
0.00105558 -0.000678669 0.000670505
4.27541e-05 -0.0206071 -0.0150285
0.00772741 -0.00327713 0.00547846
-0.0393986 0.0842976 -0.187562
6.49988e-05 -0.000593039 0.00108985
-0.01176 0.0201363 0.0331995
0.000377467 -0.00395819 0.0013968
0.0036644 0.00966291 -0.00323923
0.000613681 -0.0223582 0.0064759
0.00547268 -0.000836869 0.00091743
6.12422e-15 2.72015e-14 1.94806e-13
0.00237488 0.0166772 0.00322344
0.00464929 0.0123278 0.00760497
0.00244473 0.00814657 -0.00177213
0.00495123 -0.00100726 0.00118031
0.004002 0.00700623 0.000487256
-0.00556968 0.00221194 0.00453943
0.00323845 0.00118051 -0.00356367
0.00144506 -0.000217143 0.00344686
0.00352814 0.00993145 0.0056486
0.00290656 0.0138295 0.00485026
0.00173862 -0.0089457 0.0753253
0.000219007 0.000802595 -0.000436797
-0.00179069 -0.00342708 -0.00853395
0.000583434 -0.0234017 -0.00470083
0.00102847 0.000965196 0.00203191
-0.00212461 0.00189486 0.00172518
0.00620839 -0.00175311 0.00732242
0.000868462 0.000455674 -0.000909107
0.00513959 0.00133367 2.93381e-05
0.0020312 -0.000225384 -0.000701233
0.0018313 -0.000901544 0.00139725
-0.000226307 0.000121646 -0.000274085
-0.00160973 0.0150993 0.00984731
7.18716e-06 0.0293599 -0.000530813
0.000447041 0.00181866 0.000687746
0.00438502 0.0122878 0.00443962
-0.00533212 0.00329207 0.00028147
-0.00220057 0.00666331 0.00654291
-0.0633785 -0.0304821 0.0502773
0.0109919 -0.027034 0.0785301
0.000200963 0.0198478 -0.0101875
-0.00106541 -0.00562148 -0.0103336
0.00497565 0.012301 0.0021457
-0.001328 0.00141354 0.002356
0.00546341 0.00892922 -0.0135637
0.000871182 -0.00127137 0.00141673
0.00484214 -0.000364883 -0.000349579
0.0108158 0.0962772 -0.0179274
0.00418851 0.0141115 5.12762e-05
-0.0062167 0.0067927 -0.00961304
-0.000584419 0.00128767 0.0121355
-0.00155908 -0.00115519 -0.00490335
0.00645804 0.00493967 0.00490691
0.00464347 0.00230182 -0.0032882
-0.00559284 0.00201629 -0.00141748
-0.000210783 0.00015951 -0.000605693
-0.0189352 -0.0290173 -0.0207475
0.00413889 0.0082244 0.00189524
0.000106807 0.000154277 -0.000296908
0.00631554 0.0128483 -0.00160834
0.00238841 0.000640531 -0.00501751
0.0299419 -0.0225563 0.0653789
-0.0530874 -0.0212998 0.0163657
0.0006754 -0.000120202 0.000602156
-0.0308607 -0.00638967 0.048472
0.00379016 0.00878572 -0.00261671
0.00201743 0.00200914 0.00465786
0.00816234 -0.00124681 0.0037945
0.00449032 0.00245976 0.00497286
-0.0193198 0.0157248 0.00219921
0.00224623 0.0112252 0.000857537
-0.00626504 -0.00433088 -0.00303694
-0.00124784 -0.00102973 2.98915e-05
0.00775784 0.0126204 0.000911058
0.0 -0.0 -0.03
-0.00150323 -0.00270286 0.000158241
0.0048077 -0.00848093 -0.00270793
0.00522894 0.0106087 -0.00891543
-0.00213684 -0.00218888 0.000230098
0.0 -0.0 -0.03
-0.00286086 -0.0184755 -0.0140038
-0.000815239 -0.00149784 0.00445546
-0.00010578 -0.00125038 0.000541205
0.00652862 -0.00362591 -0.00985883
-0.00136478 -0.00126694 0.000585075
0.00163177 0.00218105 -0.00695651
0.0 -0.0 -0.03
0.00358049 0.0141397 -0.00266278
-0.00105248 0.0205123 -0.00904275
-0.00178385 -0.00146941 0.0011715
0.00849407 0.00609038 0.00825235
0.00312278 -0.00941904 -0.0038433
0.0 -0.0 -0.03
0.0 0.0 -0.0515084
-0.000543709 0.000697955 -0.00756524
0.013279 -0.00521018 -0.00594971
0.00554802 0.00492678 0.00378794
0.0079482 0.00626628 -0.00296413
0.00340277 0.0135607 0.00525795
0.00495769 0.00423689 -0.00162291
0.00979921 -0.00053993 -0.0118793
0.0 -0.0 -0.03
0.00297949 0.00215583 -0.00108979
-2.80557e-10 0.0289621 0.00177907
0.00377614 0.00892178 0.00606246
-0.000767444 -0.00161765 -0.00311377
-0.0043528 -0.0138017 -0.00514385
-9.1161e-09 0.0292559 0.000762271
-0.00560625 0.00260604 -0.000675064
0.00856292 -0.00639198 -0.00342705
0.00465755 0.00617607 -0.00158648
0.00371802 0.00683702 -5.61467e-05
-8.91064e-07 -0.00454924 -0.00519192
0.0409226 -0.0212647 -0.0838354
0.00518 0.00633645 0.0121997
0.00423268 0.0119568 0.00867893
0.0109889 0.00280849 -0.00480587

VECTORS force float
-2.00783e-07 1.88281e-07 -1.26901e-06
0.0 0.0 -1.43822e-06
8.53503e-07 -1.26614e-06 2.39489e-06
-1.17371e-06 -1.3164e-06 3.35692e-06
-3.63314e-07 4.23273e-08 -4.04341e-07
-4.19928e-07 6.20298e-07 5.23087e-07
3.44994e-08 3.33223e-07 -1.27064e-07
-5.89173e-08 -1.81833e-08 -1.50604e-07
-4.08164e-07 -1.84408e-07 -1.00164e-06
-6.2857e-10 2.77993e-08 2.66114e-08
-8.96077e-08 5.11572e-07 -2.56841e-06
-2.5663e-06 1.32697e-06 -7.96396e-06
-9.74715e-07 -7.46872e-07 -4.86139e-07
0.0 0.0 -1.43822e-06
-2.32945e-07 8.44038e-07 -1.40455e-07
-1.4207e-06 -1.13907e-07 -4.09098e-07
1.55287e-06 1.45357e-06 3.52207e-07
2.23856e-08 -1.95742e-07 -8.55865e-08
-1.71387e-06 4.09936e-07 -5.6014e-07
-8.73064e-08 3.64342e-07 1.21662e-07
-5.50449e-07 1.23039e-06 8.17346e-07
-1.39998e-07 3.46009e-07 -7.58685e-07
0.0 0.0 -1.43822e-06
9.17141e-09 -1.25693e-08 2.73746e-08
-2.17789e-08 7.45945e-08 4.29537e-08
1.40304e-06 5.50894e-06 3.22043e-06
-3.21376e-10 -7.55734e-09 1.13855e-08
-1.83018e-07 6.12121e-07 5.14578e-08
0.0 0.0 -1.43822e-06
2.29331e-06 1.31203e-06 5.37494e-06
-5.57639e-06 -8.29599e-06 1.06368e-06
1.39577e-06 -7.04645e-07 5.73884e-07
-1.11686e-07 -1.06328e-07 -2.25138e-08
7.17541e-08 6.22333e-07 2.07385e-08
9.23135e-07 -2.00481e-06 -8.79812e-08
-1.59143e-06 1.54956e-07 -1.47051e-06
-2.21557e-07 -6.75183e-07 -4.70014e-06
-1.9273e-07 1.44736e-06 4.3629e-07
5.16577e-06 4.12963e-06 -2.37406e-06
0.0 0.0 -1.43822e-06
0.0 0.0 -1.43822e-06
-7.8491e-08 6.99489e-09 -1.65877e-07
0.0 0.0 -1.43822e-06
-1.40223e-06 7.91015e-07 2.94893e-06
9.98855e-09 3.09993e-08 2.53638e-08
-1.05867e-06 4.2816e-06 -1.84918e-05
0.0 0.0 -1.43822e-06
-2.36921e-07 2.3631e-08 -1.70434e-07
1.73911e-06 -4.10935e-06 -1.1904e-05
3.76109e-08 6.45948e-07 -1.1848e-06
-1.94028e-06 4.8602e-06 -6.23624e-06
1.45207e-06 -8.78277e-07 -5.84995e-08
-1.65455e-09 -1.20103e-08 9.67234e-09
-4.50778e-07 6.00531e-07 4.58071e-07
0.0 0.0 -1.43822e-06
1.10416e-07 7.4263e-08 1.46365e-07
0.0 0.0 -1.43822e-06
4.89527e-06 -1.00544e-07 -3.42506e-07
-1.7452e-07 1.07397e-06 -3.59854e-07
-3.62342e-09 -2.56402e-09 1.44369e-08
1.30044e-06 4.13187e-07 -1.90761e-06
2.04082e-20 -1.85288e-20 1.69407e-21
0.0 0.0 -1.43822e-06
-1.76121e-07 6.77509e-07 -1.84495e-06
7.46283e-06 1.53319e-06 4.2267e-06
1.17973e-05 2.28366e-06 -4.19739e-06
1.27515e-06 -1.00199e-05 1.87332e-06
3.02014e-08 5.41144e-06 4.47491e-06
-2.21291e-06 5.92432e-07 2.62414e-08
2.9715e-06 -2.18165e-06 -7.36287e-08
3.22788e-06 5.89708e-06 2.24433e-06
-1.62671e-07 3.28216e-08 -1.58447e-07
-1.73911e-06 4.10935e-06 9.02753e-06
1.53404e-07 -2.46777e-08 5.24295e-07
0.0 0.0 -1.43822e-06
5.41767e-09 -1.45054e-08 2.71116e-08
-7.92491e-07 -4.50957e-06 9.36128e-07
-7.73767e-07 1.19552e-06 4.52573e-07
-1.27742e-05 1.00548e-05 -4.69442e-05
-1.05445e-06 -9.64155e-08 -1.76413e-07
6.80633e-06 5.49056e-06 -1.2787e-06
-2.10345e-07 8.83603e-08 3.09413e-07
-3.20329e-06 -1.89298e-07 2.23762e-06
4.3839e-07 1.73564e-07 -3.96249e-07
9.95345e-08 -2.79602e-08 -8.28525e-08
4.88232e-09 -9.02144e-09 -2.39618e-08
2.64228e-06 4.14061e-06 -2.50629e-06
-1.35242e-07 -7.95018e-08 -4.09974e-08
0.0 0.0 -1.43822e-06
-3.60487e-05 1.25468e-05 -1.72215e-05
0.0 0.0 -1.43822e-06
0.0 0.0 -1.43822e-06
-3.49541e-06 8.6986e-06 -1.44972e-05
0.0 0.0 -1.43822e-06
-2.60847e-07 -2.68348e-07 5.08388e-07
-4.9123e-07 -1.64394e-06 -2.59116e-06
4.62714e-07 4.24031e-07 -1.12195e-06
-6.86952e-07 -5.68244e-07 -6.37311e-07
0.0 0.0 -1.43822e-06
0.0 0.0 -1.43822e-06
0.0 0.0 -1.43822e-06
-2.18332e-07 1.59234e-06 -7.63961e-07
0.0 0.0 -1.43822e-06
-6.96347e-07 3.68999e-06 2.44854e-06
1.55917e-06 4.67322e-07 -5.36124e-07
-3.53729e-07 3.30086e-08 4.72338e-07
0.0 0.0 -1.43822e-06
2.45513e-07 1.97471e-07 2.26237e-07
7.48548e-08 -1.41789e-07 -5.45182e-08
8.0868e-07 3.69588e-06 -4.10492e-06
-9.60673e-07 2.69658e-08 -6.00296e-07
8.2041e-07 3.31043e-07 3.72004e-07
-1.52593e-06 9.29078e-07 -1.94122e-06
0.0 0.0 -1.43822e-06
3.83497e-07 1.07201e-06 -8.19222e-07
-1.34478e-06 4.8501e-07 3.57457e-07
0.0 0.0 -1.43822e-06
-3.66951e-07 2.13122e-06 9.98719e-07
4.48076e-08 -3.50069e-07 -1.10057e-06
4.92798e-06 -8.73612e-06 5.00142e-06
-5.75124e-08 -2.28821e-09 -1.4305e-08
3.23452e-06 1.81071e-05 5.97881e-05
-2.51374e-07 3.71763e-07 -1.29237e-06
-2.18923e-09 -1.14281e-07 -6.70845e-08
3.39445e-07 -6.67826e-08 3.47149e-07
-8.19767e-07 4.09258e-07 -4.05653e-07
0.0 0.0 0.0
-3.21443e-08 -2.93109e-07 -2.05163e-07
-4.29456e-08 -1.54983e-07 -4.70776e-08
-1.55536e-06 7.37579e-07 -4.44045e-07
7.38025e-07 -5.00443e-07 -1.22497e-06
0.0 0.0 0.0
0.0 0.0 -1.43822e-06
0.0 0.0 -1.43822e-06
2.71707e-08 -9.18529e-08 -1.17316e-07
0.0 0.0 -1.43822e-06
-3.19462e-07 -1.02711e-07 4.51767e-07
6.25248e-08 2.22233e-07 -6.42101e-07
0.0 0.0 0.0
-1.82184e-07 8.23463e-07 -9.28946e-08
-1.50091e-05 -1.30782e-05 5.87779e-06
-3.01835e-06 -1.53021e-06 6.69063e-07
0.0 0.0 -1.43822e-06
-6.17857e-08 3.25037e-07 1.2716e-07
0.0 0.0 0.0
0.0 0.0 -1.43822e-06
4.58834e-07 -4.83089e-06 -4.78001e-06
0.0 0.0 -1.43822e-06
1.74702e-07 -6.04364e-07 1.17377e-06
-2.24977e-07 9.4416e-07 -2.05625e-07
0.0 0.0 -1.43822e-06
-5.16577e-06 -4.12963e-06 -5.02378e-07
0.0 0.0 -1.43822e-06
0.0 0.0 0.0
-4.83088e-06 -6.37156e-06 3.38795e-06
-1.60028e-13 1.44912e-09 -2.3198e-08
1.68895e-05 -1.17752e-05 1.12407e-05
0.0 0.0 -1.43822e-06
0.0 0.0 -1.43822e-06
-2.62329e-14 9.30403e-10 -2.34728e-08
1.21708e-06 4.3053e-06 -6.9291e-07
-1.26426e-07 2.64997e-07 5.73264e-07
-1.86914e-07 9.18617e-07 -1.03344e-07
-1.50018e-07 6.19037e-07 4.97678e-08
0.0 0.0 -1.43822e-06
0.0 0.0 -1.43822e-06
5.27287e-06 -1.87588e-05 1.80419e-05
-6.2708e-06 3.76928e-06 -3.72823e-06
-1.00503e-06 7.5165e-07 1.33937e-06
