# vtk DataFile Version 3.0
LIGGGHTS particles timestep 13000000
ASCII
DATASET POLYDATA
POINTS 141 float
0.0293819 0.0182035 0.007277
0.0218379 0.0231924 0.018757
0.0391449 0.0165374 0.0149748
0.0232125 0.0175195 0.00749283
0.0469582 0.0173732 0.0061601
0.0371854 0.0233152 0.0122162
0.0384649 0.0194567 0.0157039
0.0221344 0.0208209 0.0155763
0.0365867 0.0228758 0.00956755
0.0281523 0.0148081 0.010889
0.0258416 0.0217543 0.0147505
0.0187293 0.0143372 0.0138168
0.0602209 0.0176585 0.00601418
0.00823063 0.0217738 0.0312189
0.0203477 0.0232018 0.0130846
0.0397355 0.0150004 0.0128764
0.154353 0.0180393 0.00580707
0.0238345 0.0227275 0.015266
0.0202874 0.0140404 0.0130962
0.0183297 0.0239072 0.0135773
0.0403486 0.0149891 0.0100195
0.0353817 0.0183054 0.00727564
0.0156366 0.0151383 0.013639
0.0295163 0.0159803 0.00843878
0.0409945 0.016806 0.00780081
0.0386515 0.0184037 0.0157005
0.0224617 0.0236312 0.0141346
0.0401271 0.0148342 0.0110428
0.03621 0.0217996 0.00813179
0.0622592 0.0198219 0.00579643
0.032484 0.0193748 0.0158432
0.0351997 0.0174928 0.00745319
0.0343003 0.0149586 0.0103239
0.0261472 0.020774 0.0154703
0.0359505 0.0209201 0.00777769
0.0191532 0.0234886 0.0117793
0.0413812 0.0182459 0.00729006
0.0163025 0.0148447 0.0129533
0.0284222 0.0150859 0.00986783
0.0315519 0.0227931 0.0135958
0.0218111 0.0148251 0.0128952
0.0319484 0.0214307 0.0150555
0.0211813 0.0229755 0.0136171
0.0141461 0.0224034 0.0144284
0.0195633 0.0232261 0.0105615
0.0380641 0.0210411 0.0151543
0.0279907 0.0147588 0.0116908
0.00197664 0.0139506 0.0435188
0.0201951 0.0243523 0.0135021
0.0196414 0.023743 0.0154574
0.0910328 0.0189119 0.00581756
0.0193399 0.0233042 0.0126875
0.0256281 0.0207038 0.016515
0.0302217 0.0218165 0.00814983
0.0236407 0.0150722 0.0150602
0.0799952 0.0188016 0.0058611
0.0133638 0.0268971 0.0275252
0.0204387 0.0235367 0.0140269
0.0229129 0.022434 0.01553
0.0607809 0.0203159 0.00600683
0.0291115 0.0171808 0.00760988
0.0222627 0.0229808 0.0149876
0.0394792 0.0153656 0.0136229
0.0338102 0.014894 0.0125709
0.0234375 0.0185341 0.00724123
0.032205 0.0193646 0.00573732
0.0195774 0.022969 0.0136073
0.0158444 0.0215671 0.0155001
0.0218515 0.0198528 0.0158685
0.032611 0.0187006 0.015767
0.0288569 0.0163455 0.00812647
0.0276591 0.0151108 0.0131285
0.0175264 0.0146138 0.0119546
0.0244924 0.0221618 0.0157639
0.0331044 0.0167741 0.015137
0.0202294 0.0234802 0.0117944
0.0935581 0.0183371 0.00588747
0.0214653 0.0234271 0.0145394
0.118145 0.0201427 0.00585321
0.0356866 0.0198081 0.00740298
0.0222332 0.0146534 0.0137851
0.0306632 0.0230224 0.00976062
0.0174483 0.0240418 0.0131246
0.0317699 0.0221776 0.0144847
0.0204386 0.0221959 0.0146396
0.0187354 0.0226184 0.00937523
0.0363236 0.0222179 0.00867442
0.0201238 0.0213234 0.0153395
0.0383458 0.0200162 0.0156887
0.0181139 0.0140581 0.0130793
0.0202244 0.0198552 0.0168209
0.0151177 0.0228169 0.0138607
0.033459 0.0154561 0.0138628
0.0255732 0.0197266 0.01674
0.0250831 0.0214806 0.0161977
0.0211525 0.0214081 0.0152655
0.0340485 0.0147958 0.0115194
0.0182668 0.0237384 0.0147273
0.0256077 0.0225959 0.0138262
0.00841998 0.0220148 0.0065957
0.0214391 0.0224209 0.014421
0.0105626 0.0249419 0.0294491
0.0175108 0.0236332 0.0140814
0.0322427 0.0203461 0.0155442
0.0300252 0.0210114 0.00765759
0.0216275 0.0239359 0.0136748
0.0191042 0.0140135 0.012948
0.0346172 0.0154227 0.0091823
0.0230319 0.0152546 0.0138092
0.0780892 0.0197976 0.00577259
0.019605 0.013805 0.0137881
0.0778211 0.0188379 0.00591496
0.0187342 0.0230889 0.0101489
0.0209548 0.0239262 0.012935
0.0227919 0.0171078 0.00655212
0.0190922 0.0236373 0.0141719
0.0368939 0.0233019 0.0106316
0.0239947 0.0209421 0.00778201
0.0297665 0.0200698 0.00735275
0.0328056 0.0177718 0.0155876
0.0304546 0.0226022 0.00898368
0.0286904 0.015635 0.00887986
0.0179602 0.0208126 0.00758071
0.0166282 0.0238425 0.0136606
0.0214579 0.0208327 0.0163995
0.00842114 0.0323835 0.0435188
0.0382189 0.0204772 0.0155512
0.026998 0.0170642 0.0151868
0.0816322 0.0177621 0.00599233
0.0388763 0.0190285 0.00572726
0.0154981 0.0145734 0.0144524
0.0232332 0.015854 0.0145838
0.0266036 0.018784 0.0158146
0.0617039 0.0173943 0.00622734
0.0171531 0.0143204 0.0129903
0.0310373 0.0233814 0.0114903
0.0204185 0.0202943 0.0157827
0.0199431 0.0239751 0.0126111
0.0231864 0.0232396 0.0147018
0.0191972 0.024403 0.0135378
0.0313081 0.0232046 0.0127008

VERTICES 141 282
1 0
1 1
1 2
1 3
1 4
1 5
1 6
1 7
1 8
1 9
1 10
1 11
1 12
1 13
1 14
1 15
1 16
1 17
1 18
1 19
1 20
1 21
1 22
1 23
1 24
1 25
1 26
1 27
1 28
1 29
1 30
1 31
1 32
1 33
1 34
1 35
1 36
1 37
1 38
1 39
1 40
1 41
1 42
1 43
1 44
1 45
1 46
1 47
1 48
1 49
1 50
1 51
1 52
1 53
1 54
1 55
1 56
1 57
1 58
1 59
1 60
1 61
1 62
1 63
1 64
1 65
1 66
1 67
1 68
1 69
1 70
1 71
1 72
1 73
1 74
1 75
1 76
1 77
1 78
1 79
1 80
1 81
1 82
1 83
1 84
1 85
1 86
1 87
1 88
1 89
1 90
1 91
1 92
1 93
1 94
1 95
1 96
1 97
1 98
1 99
1 100
1 101
1 102
1 103
1 104
1 105
1 106
1 107
1 108
1 109
1 110
1 111
1 112
1 113
1 114
1 115
1 116
1 117
1 118
1 119
1 120
1 121
1 122
1 123
1 124
1 125
1 126
1 127
1 128
1 129
1 130
1 131
1 132
1 133
1 134
1 135
1 136
1 137
1 138
1 139
1 140

POINT_DATA 141
SCALARS id int 1
LOOKUP_TABLE default
1
5
8
9
11
14
15
16
18
19
21
22
23
26
32
33
38
40
41
44
45
47
48
50
53
54
55
59
61
62
63
67
77
80
82
83
85
88
93
95
99
101
102
103
105
106
108
112
116
119
123
125
127
128
134
135
136
137
138
141
143
144
145
155
158
162
164
166
172
177
180
181
187
190
191
195
197
199
204
205
209
212
213
221
224
225
226
227
229
230
233
234
235
242
244
249
250
252
253
255
256
257
260
265
266
268
270
271
275
278
283
284
285
291
294
296
297
298
300
301
303
304
307
312
314
315
316
318
320
322
325
326
328
329
331
333
334
335
337
338
340

SCALARS type int 1
LOOKUP_TABLE default
1
1
1
1
1
1
1
1
1
1
1
1
1
1
1
1
1
1
1
1
1
1
1
1
1
1
1
1
1
1
1
1
1
1
1
1
1
1
1
1
1
1
1
1
1
1
1
1
1
1
1
1
1
1
1
1
1
1
1
1
1
1
1
1
1
1
1
1
1
1
1
1
1
1
1
1
1
1
1
1
1
1
1
1
1
1
1
1
1
1
1
1
1
1
1
1
1
1
1
1
1
1
1
1
1
1
1
1
1
1
1
1
1
1
1
1
1
1
1
1
1
1
1
1
1
1
1
1
1
1
1
1
1
1
1
1
1
1
1
1
1

SCALARS radius float 1
LOOKUP_TABLE default
0.0005
0.0005
0.0005
0.0005
0.0005
0.0005
0.0005
0.0005
0.0005
0.0005
0.0005
0.0005
0.0005
0.0005
0.0005
0.0005
0.0005
0.0005
0.0005
0.0005
0.0005
0.0005
0.0005
0.0005
0.0005
0.0005
0.0005
0.0005
0.0005
0.0005
0.0005
0.0005
0.0005
0.0005
0.0005
0.0005
0.0005
0.0005
0.0005
0.0005
0.0005
0.0005
0.0005
0.0005
0.0005
0.0005
0.0005
0.0005
0.0005
0.0005
0.0005
0.0005
0.0005
0.0005
0.0005
0.0005
0.0005
0.0005
0.0005
0.0005
0.0005
0.0005
0.0005
0.0005
0.0005
0.0005
0.0005
0.0005
0.0005
0.0005
0.0005
0.0005
0.0005
0.0005
0.0005
0.0005
0.0005
0.0005
0.0005
0.0005
0.0005
0.0005
0.0005
0.0005
0.0005
0.0005
0.0005
0.0005
0.0005
0.0005
0.0005
0.0005
0.0005
0.0005
0.0005
0.0005
0.0005
0.0005
0.0005
0.0005
0.0005
0.0005
0.0005
0.0005
0.0005
0.0005
0.0005
0.0005
0.0005
0.0005
0.0005
0.0005
0.0005
0.0005
0.0005
0.0005
0.0005
0.0005
0.0005
0.0005
0.0005
0.0005
0.0005
0.0005
0.0005
0.0005
0.0005
0.0005
0.0005
0.0005
0.0005
0.0005
0.0005
0.0005
0.0005
0.0005
0.0005
0.0005
0.0005
0.0005
0.0005

SCALARS mass float 1
LOOKUP_TABLE default
1.46608e-07
1.46608e-07
1.46608e-07
1.46608e-07
1.46608e-07
1.46608e-07
1.46608e-07
1.46608e-07
1.46608e-07
1.46608e-07
1.46608e-07
1.46608e-07
1.46608e-07
1.46608e-07
1.46608e-07
1.46608e-07
1.46608e-07
1.46608e-07
1.46608e-07
1.46608e-07
1.46608e-07
1.46608e-07
1.46608e-07
1.46608e-07
1.46608e-07
1.46608e-07
1.46608e-07
1.46608e-07
1.46608e-07
1.46608e-07
1.46608e-07
1.46608e-07
1.46608e-07
1.46608e-07
1.46608e-07
1.46608e-07
1.46608e-07
1.46608e-07
1.46608e-07
1.46608e-07
1.46608e-07
1.46608e-07
1.46608e-07
1.46608e-07
1.46608e-07
1.46608e-07
1.46608e-07
1.46608e-07
1.46608e-07
1.46608e-07
1.46608e-07
1.46608e-07
1.46608e-07
1.46608e-07
1.46608e-07
1.46608e-07
1.46608e-07
1.46608e-07
1.46608e-07
1.46608e-07
1.46608e-07
1.46608e-07
1.46608e-07
1.46608e-07
1.46608e-07
1.46608e-07
1.46608e-07
1.46608e-07
1.46608e-07
1.46608e-07
1.46608e-07
1.46608e-07
1.46608e-07
1.46608e-07
1.46608e-07
1.46608e-07
1.46608e-07
1.46608e-07
1.46608e-07
1.46608e-07
1.46608e-07
1.46608e-07
1.46608e-07
1.46608e-07
1.46608e-07
1.46608e-07
1.46608e-07
1.46608e-07
1.46608e-07
1.46608e-07
1.46608e-07
1.46608e-07
1.46608e-07
1.46608e-07
1.46608e-07
1.46608e-07
1.46608e-07
1.46608e-07
1.46608e-07
1.46608e-07
1.46608e-07
1.46608e-07
1.46608e-07
1.46608e-07
1.46608e-07
1.46608e-07
1.46608e-07
1.46608e-07
1.46608e-07
1.46608e-07
1.46608e-07
1.46608e-07
1.46608e-07
1.46608e-07
1.46608e-07
1.46608e-07
1.46608e-07
1.46608e-07
1.46608e-07
1.46608e-07
1.46608e-07
1.46608e-07
1.46608e-07
1.46608e-07
1.46608e-07
1.46608e-07
1.46608e-07
1.46608e-07
1.46608e-07
1.46608e-07
1.46608e-07
1.46608e-07
1.46608e-07
1.46608e-07
1.46608e-07
1.46608e-07
1.46608e-07
1.46608e-07
1.46608e-07
1.46608e-07
1.46608e-07

VECTORS velocity float
0.000316754 -0.0233831 0.00530472
-0.0419346 0.135546 0.117465
0.000233767 0.0202941 0.0167645
0.000124663 -0.0253163 0.00756463
4.49247e-15 2.51202e-14 1.72927e-13
0.000271457 0.00524007 -0.0211727
0.00226831 0.00891501 0.00180988
-5.82864e-05 0.0255796 -0.0110703
0.000233429 -0.0112253 -0.0220134
0.00211697 -0.00536939 0.0203528
0.000348482 0.0182449 -0.0160865
0.00366861 -6.77697e-05 -0.00117854
-0.102491 -0.0267345 -0.110894
0.0794687 -0.0325392 -0.193062
0.00723729 0.00173784 -0.0079593
0.00265877 0.00459795 0.0123435
8.76938e-15 -2.34812e-14 1.89549e-13
0.000433856 0.000320594 0.00156498
0.000536273 0.000670213 -0.00122891
0.000939473 -0.000616351 -0.00140063
0.00137199 -0.00708187 0.0167442
0.000759645 -0.0236497 0.000580098
0.00437494 0.00259221 0.00781855
0.000643809 -0.0172 0.0173935
0.000847295 -0.0140364 0.00724357
-0.000228 0.0247566 0.00371953
-0.000894101 0.00118511 0.00460063
0.000369784 -0.00200901 0.0241999
0.00291711 -0.00827738 -0.00732717
-5.06465e-15 -6.78071e-14 1.88019e-13
0.00159335 0.0049872 0.00148965
0.00056408 -0.0219662 0.00952921
0.000801728 -0.00556701 0.0226383
0.00461543 0.00568444 -0.00152668
0.00185662 -0.0195925 -0.0080999
0.00299718 0.000507948 -0.00368348
0.000890897 -0.0191527 0.00597489
0.000942345 0.000278466 0.00499435
0.00024897 -0.00983605 0.0230548
0.000308142 0.0124807 -0.0216366
0.0046136 0.000509961 0.00459199
0.000199539 0.0213138 -0.0128977
0.0305215 0.00470014 -0.0082044
0.00373827 0.00115754 -0.00323587
-0.000803862 -0.0033822 -0.0101936
0.00246219 0.0105848 -0.00625354
0.000674237 0.00252038 0.0207962
-9.69236e-317 -9.6912e-317 3.10717e-12
-5.89517e-05 0.000166269 -0.000248566
-0.0630862 -0.136066 -0.271869
-1.03107e-14 1.48956e-14 1.99438e-13
0.00186481 0.00320058 -0.0083637
0.000671416 -0.00647476 0.000284217
-3.33774e-05 -0.0189468 -0.0170565
-0.0306152 -0.0272035 -0.0211748
1.52797e-14 5.1841e-14 2.19696e-13
0.0269732 -0.0533056 -0.235032
0.00433488 -0.0120662 -0.0207209
-0.00773269 0.0264732 -0.0224228
0.0186956 0.153161 0.0785155
0.00056699 -0.0196456 0.00875942
-0.00819512 0.0147607 -0.0179804
0.00179728 0.0108708 0.0137347
0.0161678 -0.0338349 0.0336348
0.00018442 -0.024419 0.00307882
0.0115357 0.0181209 0.00519489
0.000980599 0.00925408 -0.018255
0.0274281 0.0738847 0.0190083
7.0826e-11 0.0236878 -0.00435872
0.00218638 0.0144676 0.00343399
0.000216155 -0.0192052 0.0152612
0.000122662 0.00909245 0.0238934
0.00169995 -0.00157294 0.00308647
0.00206152 0.00227 0.00515145
0.00164435 0.0150296 0.00987506
0.00027163 0.000630819 -0.000555167
1.05992e-14 1.89591e-14 2.48644e-13
-0.0248843 0.0405732 -0.024632
-1.11205e-15 -1.75113e-14 8.40189e-14
4.31026e-05 -0.0247576 -0.00527786
0.00420253 0.00022424 0.00456788
0.00108024 -0.00924882 -0.020482
0.000224812 4.89185e-05 0.000177743
0.00255203 0.0119114 -0.0110949
-0.00768079 0.0407428 -0.0399888
0.00022204 -0.016349 -0.0215883
0.00526232 -0.00946563 -0.00933271
-0.00649518 0.0488538 -0.0134292
0.00334122 0.00540857 -0.000260409
0.000664609 -0.000569968 0.00103061
0.00986527 -0.053735 -0.108401
0.00982114 0.00378366 -0.00711009
-4.47728e-05 0.0131774 0.0223621
0.0010571 -0.0157053 0.00236954
0.00211692 -0.000560606 0.00597944
0.00252166 0.0353843 -0.0223376
-0.00029016 -0.00168603 0.025921
0.00204131 -0.00263862 -0.00275598
5.49164e-05 0.0156985 -0.0209477
5.70424e-15 -2.44687e-14 6.92188e-14
-1.36924e-06 0.0169055 -0.0169979
0.0988566 -0.0263123 -0.209294
0.00119013 -0.00240057 -0.0019994
0.00031169 0.0226634 -0.00789145
0.000415739 -0.0215484 -0.0101193
-0.00125072 0.00391891 0.00509132
1.84206e-05 0.00193828 -0.00317089
0.000214099 -0.0145869 0.021531
0.00292151 0.00168955 0.00348923
2.40599e-15 -4.18117e-14 1.54367e-13
-0.00105368 0.000876981 -0.00269464
5.21477e-15 -3.12769e-14 -1.20225e-13
0.00105918 -0.00803259 -0.0214579
0.00788941 -0.000752447 -0.000187673
2.64835e-14 -5.64327e-14 -2.04448e-13
0.000562947 0.00551617 -0.00402358
0.00169104 -0.00319883 -0.017334
-3.43846e-05 -0.0224798 -0.0127013
0.000174377 -0.0240947 -0.00578372
0.000339208 0.0229989 0.00755063
0.000691224 -0.0138045 -0.0178886
0.00338642 -0.00743272 0.00865731
0.000269519 -0.0224411 -0.00989552
0.000412286 0.000638077 0.000556432
-0.0164192 0.00993385 -0.0530662
-9.72922e-317 -9.70169e-317 -1.69736e-12
0.0051203 0.00887622 -0.00678995
0.00308373 0.0276696 0.0106307
1.53313e-14 5.18515e-14 2.1969e-13
1.54167e-15 -7.41795e-15 3.6666e-14
0.00593929 -0.00586445 0.00245634
-0.00602822 0.00456824 0.00290565
0.0011205 0.0220748 0.000524847
0.0518271 0.0123492 0.0251005
0.000791048 -0.000660374 0.00159247
0.000206437 0.000457824 -0.0250265
-9.59164e-09 0.0232425 -0.00672206
-3.23173e-05 0.00149582 -0.00112393
0.000134269 0.000486183 -0.000351968
0.000180432 0.00281235 -0.000678372
0.000407655 0.00802848 -0.0218866

VECTORS force float
-6.63818e-10 -4.95198e-09 1.48053e-08
0.0 0.0 -1.43822e-06
4.95212e-09 1.32831e-08 -8.22303e-09
-8.52498e-09 -1.76661e-09 1.40356e-08
-1.78671e-22 -2.06464e-21 2.11758e-22
-8.98074e-09 -4.14701e-08 1.84892e-09
2.17089e-08 2.48359e-07 -1.38121e-07
3.05075e-09 -9.65492e-09 -2.3695e-08
-1.04731e-09 -1.60598e-08 8.85674e-10
-7.22468e-07 4.15041e-06 -8.97307e-06
-1.98451e-09 -4.06497e-09 -1.65431e-08
-1.73944e-08 -4.30573e-07 -8.84047e-07
0.000564973 0.000295926 0.00129076
0.0 0.0 -1.43822e-06
1.6932e-06 2.36249e-07 -2.18853e-06
-5.23682e-08 -7.40325e-08 6.73074e-08
-2.1561e-19 -8.66621e-20 1.69407e-21
8.06261e-09 1.72713e-08 -1.44374e-06
-3.00489e-07 -8.65888e-08 2.30325e-07
6.81409e-07 1.34887e-06 -2.1079e-08
4.57277e-09 1.92373e-08 3.27016e-10
2.57717e-08 1.29382e-07 5.12378e-08
6.11577e-08 -9.95644e-09 -6.36531e-08
-1.72692e-07 -2.99397e-07 3.73398e-07
4.17691e-07 6.13568e-07 -8.45427e-07
4.32966e-09 9.41339e-09 -1.54913e-08
0.0 0.0 -1.43822e-06
-2.43701e-09 1.3426e-08 9.49877e-09
7.4993e-08 -1.74251e-08 -4.89936e-09
1.14204e-19 6.67038e-21 4.65868e-21
1.16247e-08 -6.98903e-08 -2.42689e-09
-7.32184e-09 3.71849e-08 3.63689e-08
-9.68013e-09 8.04299e-09 2.37511e-08
-2.83241e-05 3.35132e-05 -8.03135e-06
-1.95683e-08 -7.3569e-08 -3.82594e-08
-4.2595e-08 1.00276e-07 -2.20464e-07
-6.68154e-09 -7.38569e-08 3.66135e-08
-4.92081e-08 -7.93463e-09 -1.72567e-07
-9.18954e-10 1.09257e-08 9.06164e-09
-8.36739e-10 -8.99789e-09 -1.18394e-08
-8.56042e-08 -1.66398e-07 2.67477e-07
2.72778e-09 -1.42079e-08 -1.31335e-08
0.0 0.0 -1.43822e-06
7.50191e-09 7.08015e-09 1.9577e-08
3.06626e-07 -1.82708e-08 -1.0395e-07
6.90499e-08 -1.414e-07 7.88671e-08
-9.72551e-07 2.6993e-07 -2.134e-06
0.0 0.0 0.0
-1.30956e-06 5.13695e-07 1.58762e-06
0.0 0.0 -1.43822e-06
1.25321e-19 -7.41154e-22 7.19978e-21
3.20792e-08 2.05746e-08 -6.40165e-07
0.0 0.0 -1.43822e-06
5.17297e-09 -1.20182e-08 9.46182e-09
-5.35377e-07 7.30318e-07 -4.54992e-07
-3.62557e-19 1.37166e-19 -7.19978e-21
0.0 0.0 -1.43822e-06
7.26398e-08 -3.91755e-07 -6.04385e-07
3.1778e-07 3.90759e-07 -3.91191e-07
0.0 0.0 -1.43822e-06
1.73409e-09 -4.25927e-08 5.82326e-08
3.32429e-07 9.92169e-07 -9.43953e-07
-2.61298e-08 -1.07001e-08 1.35763e-08
0.000914723 -0.0371096 0.0161524
-4.9951e-10 -5.95531e-09 1.50077e-08
6.31491e-07 -4.1686e-07 -7.91638e-08
2.28249e-07 3.91702e-07 -3.20649e-07
0.0 0.0 -1.43822e-06
2.64171e-14 -3.42068e-09 -1.85153e-08
-1.59748e-08 -9.72503e-08 1.08581e-08
1.70307e-07 3.843e-07 -3.3989e-07
-6.19363e-10 1.62188e-08 -1.53882e-09
1.64451e-08 1.49279e-07 -4.03105e-07
0.0 0.0 -1.43822e-06
-2.95571e-08 1.09343e-07 -1.08778e-08
9.20411e-07 1.22438e-07 5.091e-07
-1.47569e-20 -1.23084e-20 1.48231e-21
0.0 0.0 -1.43822e-06
-7.74241e-21 5.29396e-23 0.0
-8.96611e-10 -5.82275e-09 1.5061e-08
3.09165e-07 -3.46037e-07 9.84978e-07
-2.27464e-08 -4.48496e-08 -6.94254e-08
-1.12652e-07 4.53868e-08 -4.81084e-07
-1.73209e-08 1.51144e-08 -7.05566e-08
6.77642e-08 3.2325e-07 -4.21303e-07
-5.19586e-08 -1.15027e-07 -6.43276e-08
-7.22748e-08 -6.54056e-08 -2.39926e-07
0.0 0.0 -1.43822e-06
2.68453e-08 -1.05057e-07 4.74757e-08
-8.18e-07 3.14876e-07 -7.66876e-07
0.0 0.0 -1.43822e-06
-1.25465e-09 4.56053e-09 1.10661e-08
-1.09937e-09 1.65592e-08 -3.12773e-09
-3.13212e-08 8.70038e-07 -1.32403e-07
0.0 0.0 -1.43822e-06
-4.36211e-08 1.6366e-07 -1.65154e-07
4.77451e-09 1.52919e-08 4.10141e-09
4.64377e-07 1.44288e-07 -1.04375e-07
6.85899e-11 -1.21492e-08 -1.08982e-08
1.10975e-19 1.70465e-20 -3.59989e-21
0.0 0.0 -1.43822e-06
3.03624e-07 -2.92855e-07 -9.28749e-07
-4.26346e-07 -4.90152e-07 -3.18018e-07
-2.39058e-09 4.92223e-09 -1.85155e-08
-4.01134e-09 -1.50748e-08 8.61257e-09
2.35394e-06 -1.07354e-06 1.52941e-06
1.21729e-06 2.1233e-07 2.36601e-07
-9.99935e-10 8.80642e-09 1.72674e-08
-9.41084e-08 -1.33996e-07 -3.51022e-07
-3.86128e-21 1.05879e-22 2.11758e-22
-2.68058e-07 2.22112e-07 -5.3022e-07
-1.98523e-22 -1.58819e-22 2.11758e-22
2.9538e-08 2.02117e-07 2.2386e-07
5.59337e-06 -1.80456e-06 -5.72741e-07
9.79382e-22 5.82335e-22 0.0
-1.49722e-06 -4.10307e-06 6.53192e-06
1.19332e-08 1.35657e-08 6.84718e-08
-9.46945e-10 -9.72188e-09 1.23537e-08
-1.4447e-09 -1.02182e-08 1.29247e-08
-7.53426e-10 -7.39445e-08 -2.66963e-08
-8.89828e-09 -3.14766e-08 -1.90777e-08
-1.19457e-07 -1.68031e-07 2.94294e-08
-8.75635e-10 -1.1934e-08 8.60434e-09
-4.61489e-07 -1.15136e-07 -3.68602e-07
0.0 0.0 -1.43822e-06
0.0 0.0 0.0
-1.35178e-07 -1.84644e-07 4.12013e-07
1.49368e-08 2.43059e-08 6.06245e-08
3.15387e-20 -3.38813e-21 -1.27055e-21
6.65053e-21 -3.07049e-21 -8.47033e-22
-4.37146e-08 7.66986e-08 -8.75277e-08
7.13626e-07 1.75397e-07 -2.14826e-07
-1.69711e-08 3.59508e-08 -1.2107e-08
0.0 0.0 -1.43822e-06
-4.63203e-07 9.14497e-08 1.47275e-07
6.71494e-10 -1.55435e-08 -6.05587e-09
-7.00999e-11 -6.18315e-09 -2.07573e-08
-2.96667e-07 5.00666e-07 5.08315e-07
0.0 0.0 -1.43822e-06
-2.96799e-06 8.48507e-06 1.80008e-06
-3.98197e-09 -2.58616e-09 -9.13331e-08
