# vtk DataFile Version 3.0
LIGGGHTS particles timestep 4000000
ASCII
DATASET POLYDATA
POINTS 261 float
0.0215487 0.024209 0.0141086
0.0208659 0.0231899 0.0102594
0.0249963 0.018841 0.0167452
0.023829 0.0200578 0.0158277
0.0177611 0.0202799 0.015778
0.0160209 0.015849 0.0160875
0.0235747 0.0175462 0.0171237
0.0278854 0.0199565 0.0157382
0.0203412 0.0145205 0.0161238
0.0239013 0.019653 0.0167587
0.020762 0.0159925 0.015785
0.0177475 0.0243244 0.0139954
0.0192337 0.0175693 0.016542
0.0274444 0.0215845 0.0149267
0.0145849 0.0189217 0.0168515
0.0171816 0.0146616 0.0143392
0.026186 0.0230409 0.00978526
0.0190035 0.0241015 0.0129396
0.0226687 0.0234354 0.0140727
0.0186638 0.0140998 0.0128047
0.0196512 0.0242411 0.0140728
0.0205048 0.0235492 0.0147596
0.0182999 0.0149444 0.0131979
0.0158391 0.0179601 0.0168072
0.0206017 0.0243033 0.0138871
0.0222772 0.0183856 0.0158959
0.0172273 0.0150104 0.0133563
0.0284108 0.0175348 0.0155295
0.0235515 0.0209709 0.0155117
0.0227668 0.0235241 0.0152555
0.154353 0.0180393 0.00580707
0.0217605 0.0235427 0.0152072
0.0168837 0.0241264 0.0143797
0.024905 0.021677 0.0160525
0.0173594 0.024041 0.0130879
0.0145863 0.0218239 0.0170753
0.0292171 0.0151237 0.012971
0.0243867 0.0204472 0.0173432
0.0248088 0.0178428 0.00741198
0.0253072 0.0169603 0.0163107
0.0142167 0.0152977 0.0151702
0.0188609 0.0180496 0.00728739
0.0227188 0.0152827 0.0158758
0.0219561 0.0236051 0.013454
0.0295219 0.0147857 0.0114486
0.0276484 0.0208893 0.0154096
0.0179392 0.0179816 0.0158189
0.0207626 0.0232964 0.0124963
0.0228688 0.0155949 0.0149334
0.0287261 0.0163554 0.0148479
0.0257796 0.0217808 0.00832284
0.0610421 0.0187951 0.0058864
0.020387 0.014539 0.0142124
0.0228412 0.0203179 0.015775
0.0236314 0.023046 0.0155798
0.0242071 0.0156036 0.00890948
0.0257117 0.0203799 0.0165808
0.0162921 0.0166618 0.0166454
0.0228557 0.0197321 0.0168458
0.020152 0.0241305 0.0129732
0.01865 0.0220035 0.0158605
0.0157858 0.0213871 0.0165729
0.024144 0.0151231 0.00976178
0.020445 0.0217008 0.0174138
0.0235681 0.0218575 0.0159737
0.0186898 0.0242019 0.014185
0.0200568 0.0151171 0.0149946
0.0247845 0.0161311 0.0159104
0.0210533 0.0230538 0.0134136
0.0297754 0.014897 0.0106035
0.0163432 0.0236758 0.0150903
0.0230362 0.0207976 0.0184254
0.0172783 0.0202118 0.0199376
0.0225344 0.023144 0.017793
0.0190809 0.0164432 0.0160501
0.024045 0.0186646 0.0159403
0.0197498 0.0158178 0.0156466
0.0200656 0.0136868 0.0137996
0.0213909 0.0194914 0.0167838
0.0251169 0.0178476 0.0168623
0.0179621 0.0193114 0.0159374
0.0254945 0.0213359 0.0167769
0.0167246 0.0223176 0.016847
0.0212727 0.0147953 0.0145991
0.0232346 0.0169427 0.016396
0.0151478 0.0155634 0.0154524
0.0264979 0.0233832 0.0111749
0.0206035 0.0235621 0.0117737
0.0211236 0.0239637 0.0131211
0.0233727 0.0164424 0.0150993
0.0202279 0.0154799 0.0164573
0.0195448 0.0227448 0.0202407
0.0178987 0.0154227 0.0140651
0.0203488 0.0175912 0.0165387
0.0185375 0.0185652 0.0195286
0.0164355 0.0236674 0.0137107
0.0182048 0.0167991 0.016376
0.0143099 0.0212755 0.0162809
0.0175119 0.0257864 0.0213282
0.024344 0.0224881 0.0159838
0.01914 0.0229472 0.016119
0.0222598 0.0170239 0.0166034
0.0160247 0.0221648 0.015978
0.025869 0.0194101 0.016766
0.0133386 0.0214868 0.0161722
0.0143211 0.0229308 0.0150904
0.0217126 0.020177 0.0174367
0.024039 0.0154006 0.0153716
0.0241447 0.0215779 0.0167423
0.0223993 0.0206875 0.0167367
0.0210212 0.0137476 0.0141389
0.023747 0.0157509 0.0144817
0.0213518 0.0231787 0.0143676
0.0169067 0.0226314 0.0159152
0.0199366 0.0222927 0.015638
0.028091 0.0189088 0.015831
0.0150067 0.014857 0.0146745
0.0218197 0.0179204 0.0166578
0.0139297 0.0222386 0.0156967
0.0231304 0.0146298 0.0149239
0.0200771 0.0166389 0.016155
0.0186705 0.022908 0.0150659
0.0228289 0.0180056 0.016639
0.0232392 0.0160922 0.0169335
0.0209567 0.0184296 0.0167262
0.016769 0.0205969 0.0158383
0.0175439 0.014615 0.0119494
0.0209195 0.015047 0.0155001
0.0235106 0.0187275 0.0167831
0.0230708 0.0193483 0.0159408
0.0217031 0.0211797 0.0154465
0.017565 0.019327 0.0169206
0.018088 0.0234251 0.0143689
0.0138127 0.0211772 0.0172826
0.0170858 0.015927 0.0155754
0.0198011 0.0233405 0.0154567
0.0157009 0.0234532 0.0143562
0.0196638 0.0215154 0.00796741
0.0181233 0.0155767 0.0156351
0.0189705 0.015194 0.0152188
0.0149594 0.0233889 0.0246659
0.0169635 0.0156373 0.0143694
0.0232211 0.0187795 0.0212864
0.0193651 0.0144902 0.0146272
0.0176414 0.0218853 0.0161162
0.0234282 0.0148069 0.0122204
0.0167275 0.0215052 0.0162579
0.024772 0.0193278 0.0175896
0.021557 0.0222258 0.014609
0.0225693 0.0223983 0.0158862
0.0236215 0.0207527 0.01652
0.0166757 0.0205522 0.0168328
0.0935581 0.0183371 0.00588747
0.0243018 0.0183017 0.017222
0.02191 0.023986 0.0177606
0.0204401 0.0239015 0.0160236
0.118145 0.0201427 0.00585321
0.0254206 0.0204767 0.00749538
0.0188985 0.0144653 0.0178702
0.0203313 0.023938 0.0207619
0.0202775 0.0244962 0.0175289
0.0129363 0.019736 0.0167601
0.0190032 0.0188673 0.0167568
0.0230952 0.0152946 0.0138763
0.0191416 0.0194197 0.00718291
0.0161586 0.015028 0.0149384
0.0163562 0.0221807 0.0146898
0.0199584 0.0211489 0.0163388
0.0240139 0.0167649 0.0157952
0.0188477 0.0237454 0.0155827
0.0200491 0.0188507 0.0167599
0.0169773 0.0196225 0.0159204
0.025987 0.0225939 0.00913888
0.0190759 0.0143718 0.0136742
0.027102 0.0226831 0.0136449
0.0233591 0.0178955 0.0157983
0.0247989 0.0205103 0.018252
0.0189042 0.0196226 0.0174221
0.0169831 0.0176903 0.0157373
0.0243693 0.0172371 0.0166016
0.0235887 0.0147426 0.0113091
0.0188536 0.0155919 0.014309
0.0150916 0.0235662 0.0151417
0.0186535 0.0164056 0.0150777
0.0151409 0.0228291 0.0138103
0.0183109 0.0240808 0.0164696
0.0176064 0.0139093 0.0138104
0.0220641 0.0193614 0.0159526
0.0209808 0.0206855 0.0165152
0.0185845 0.014614 0.0119509
0.0127918 0.0207137 0.0164941
0.0157766 0.0207393 0.0158112
0.0181417 0.0146246 0.0146164
0.0172852 0.0240103 0.0167116
0.0176665 0.014243 0.0128693
0.0173231 0.0219868 0.0148534
0.0166418 0.0142057 0.0136317
0.0201573 0.0208369 0.0076181
0.0224459 0.0187917 0.0171333
0.0165584 0.0213978 0.0152781
0.0177378 0.0160932 0.0148219
0.0225661 0.0163826 0.0158147
0.0161995 0.0187886 0.0159471
0.0137801 0.0204764 0.0165649
0.0172015 0.0186466 0.0159388
0.0217951 0.021384 0.0190082
0.0149809 0.0209162 0.0169336
0.0198556 0.0222417 0.00860924
0.0204874 0.019536 0.0180903
0.0170137 0.023622 0.015831
0.0158345 0.0144897 0.0141579
0.0225088 0.017375 0.015616
0.0193671 0.0234145 0.0145582
0.0154929 0.0225795 0.0167163
0.015721 0.0202835 0.0167047
0.0196593 0.0140166 0.012943
0.021596 0.0233545 0.0124744
0.0215388 0.0165227 0.0161248
0.0222847 0.0141377 0.0147175
0.0159832 0.019764 0.0158916
0.0179527 0.0148137 0.0174141
0.0166854 0.0227537 0.0139303
0.0158333 0.0228304 0.0152507
0.0259395 0.0184153 0.0168368
0.0247114 0.0207858 0.0164605
0.0268734 0.0227957 0.00926768
0.0170571 0.0149001 0.0153655
0.0220604 0.0150518 0.0151591
0.0217192 0.0149411 0.0160928
0.0234559 0.0159527 0.0159673
0.0178812 0.0236113 0.0153339
0.0235296 0.0199435 0.0182611
0.0180245 0.0231407 0.0162854
0.0176971 0.0220763 0.0170962
0.0172189 0.0230713 0.0147142
0.0223655 0.0218332 0.0150809
0.0144385 0.017015 0.0164245
0.00842114 0.0323835 0.0435188
0.0244033 0.0162981 0.0150012
0.0178314 0.0170435 0.0154812
0.0153635 0.0222443 0.0145899
0.0248842 0.0198343 0.0167176
0.0207875 0.0140858 0.0132274
0.0217894 0.0143417 0.0138731
0.0175248 0.0211814 0.0154158
0.0146574 0.0200028 0.0166869
0.0194477 0.0241213 0.0162886
0.0189791 0.0244398 0.0171211
0.0218602 0.0203418 0.0159687
0.0168621 0.0201624 0.0189757
0.0166309 0.0168356 0.0153562
0.023308 0.0220486 0.0147797
0.0181368 0.0210082 0.016371
0.0155752 0.0215779 0.0153047
0.0224868 0.0224904 0.0143371
0.0188352 0.0218544 0.0169394
0.0162511 0.023205 0.0164067
0.0150678 0.021903 0.0161028
0.023329 0.0230322 0.0146386
0.017797 0.0226237 0.0154604
0.0158534 0.0231056 0.0132503

VERTICES 261 522
1 0
1 1
1 2
1 3
1 4
1 5
1 6
1 7
1 8
1 9
1 10
1 11
1 12
1 13
1 14
1 15
1 16
1 17
1 18
1 19
1 20
1 21
1 22
1 23
1 24
1 25
1 26
1 27
1 28
1 29
1 30
1 31
1 32
1 33
1 34
1 35
1 36
1 37
1 38
1 39
1 40
1 41
1 42
1 43
1 44
1 45
1 46
1 47
1 48
1 49
1 50
1 51
1 52
1 53
1 54
1 55
1 56
1 57
1 58
1 59
1 60
1 61
1 62
1 63
1 64
1 65
1 66
1 67
1 68
1 69
1 70
1 71
1 72
1 73
1 74
1 75
1 76
1 77
1 78
1 79
1 80
1 81
1 82
1 83
1 84
1 85
1 86
1 87
1 88
1 89
1 90
1 91
1 92
1 93
1 94
1 95
1 96
1 97
1 98
1 99
1 100
1 101
1 102
1 103
1 104
1 105
1 106
1 107
1 108
1 109
1 110
1 111
1 112
1 113
1 114
1 115
1 116
1 117
1 118
1 119
1 120
1 121
1 122
1 123
1 124
1 125
1 126
1 127
1 128
1 129
1 130
1 131
1 132
1 133
1 134
1 135
1 136
1 137
1 138
1 139
1 140
1 141
1 142
1 143
1 144
1 145
1 146
1 147
1 148
1 149
1 150
1 151
1 152
1 153
1 154
1 155
1 156
1 157
1 158
1 159
1 160
1 161
1 162
1 163
1 164
1 165
1 166
1 167
1 168
1 169
1 170
1 171
1 172
1 173
1 174
1 175
1 176
1 177
1 178
1 179
1 180
1 181
1 182
1 183
1 184
1 185
1 186
1 187
1 188
1 189
1 190
1 191
1 192
1 193
1 194
1 195
1 196
1 197
1 198
1 199
1 200
1 201
1 202
1 203
1 204
1 205
1 206
1 207
1 208
1 209
1 210
1 211
1 212
1 213
1 214
1 215
1 216
1 217
1 218
1 219
1 220
1 221
1 222
1 223
1 224
1 225
1 226
1 227
1 228
1 229
1 230
1 231
1 232
1 233
1 234
1 235
1 236
1 237
1 238
1 239
1 240
1 241
1 242
1 243
1 244
1 245
1 246
1 247
1 248
1 249
1 250
1 251
1 252
1 253
1 254
1 255
1 256
1 257
1 258
1 259
1 260

POINT_DATA 261
SCALARS id int 1
LOOKUP_TABLE default
1
2
3
4
5
6
7
8
9
10
11
13
14
15
16
17
18
19
21
22
23
26
28
29
30
31
32
33
36
37
38
40
41
42
43
44
45
46
47
48
49
50
51
52
53
54
55
57
58
59
61
62
63
65
66
67
70
71
72
74
75
76
77
78
79
80
81
82
83
85
86
88
90
91
92
93
94
95
97
99
100
101
102
103
104
105
106
107
108
109
110
111
112
113
114
116
118
119
120
123
124
125
127
128
129
134
135
136
137
138
139
140
141
143
144
145
146
147
149
150
152
153
155
156
157
158
159
160
162
164
165
166
167
169
170
171
172
173
176
177
178
180
181
182
183
184
187
190
191
193
194
195
197
199
201
203
204
205
206
207
209
212
213
214
215
218
219
220
221
222
224
225
226
227
229
230
231
233
234
235
236
242
244
245
246
247
249
250
251
252
253
255
256
257
258
259
260
261
262
263
264
265
266
267
268
269
270
271
272
274
275
276
278
281
283
284
285
287
288
290
291
292
294
295
296
297
298
300
301
302
303
304
307
308
312
313
314
315
316
317
318
319
320
321
322
323
324
325
326
327
328
329
331
333
334
335
336
337
338
339
340

SCALARS type int 1
LOOKUP_TABLE default
1
1
1
1
1
1
1
1
1
1
1
1
1
1
1
1
1
1
1
1
1
1
1
1
1
1
1
1
1
1
1
1
1
1
1
1
1
1
1
1
1
1
1
1
1
1
1
1
1
1
1
1
1
1
1
1
1
1
1
1
1
1
1
1
1
1
1
1
1
1
1
1
1
1
1
1
1
1
1
1
1
1
1
1
1
1
1
1
1
1
1
1
1
1
1
1
1
1
1
1
1
1
1
1
1
1
1
1
1
1
1
1
1
1
1
1
1
1
1
1
1
1
1
1
1
1
1
1
1
1
1
1
1
1
1
1
1
1
1
1
1
1
1
1
1
1
1
1
1
1
1
1
1
1
1
1
1
1
1
1
1
1
1
1
1
1
1
1
1
1
1
1
1
1
1
1
1
1
1
1
1
1
1
1
1
1
1
1
1
1
1
1
1
1
1
1
1
1
1
1
1
1
1
1
1
1
1
1
1
1
1
1
1
1
1
1
1
1
1
1
1
1
1
1
1
1
1
1
1
1
1
1
1
1
1
1
1
1
1
1
1
1
1
1
1
1
1
1
1
1
1
1
1
1
1
1
1
1
1
1
1

SCALARS radius float 1
LOOKUP_TABLE default
0.0005
0.0005
0.0005
0.0005
0.0005
0.0005
0.0005
0.0005
0.0005
0.0005
0.0005
0.0005
0.0005
0.0005
0.0005
0.0005
0.0005
0.0005
0.0005
0.0005
0.0005
0.0005
0.0005
0.0005
0.0005
0.0005
0.0005
0.0005
0.0005
0.0005
0.0005
0.0005
0.0005
0.0005
0.0005
0.0005
0.0005
0.0005
0.0005
0.0005
0.0005
0.0005
0.0005
0.0005
0.0005
0.0005
0.0005
0.0005
0.0005
0.0005
0.0005
0.0005
0.0005
0.0005
0.0005
0.0005
0.0005
0.0005
0.0005
0.0005
0.0005
0.0005
0.0005
0.0005
0.0005
0.0005
0.0005
0.0005
0.0005
0.0005
0.0005
0.0005
0.0005
0.0005
0.0005
0.0005
0.0005
0.0005
0.0005
0.0005
0.0005
0.0005
0.0005
0.0005
0.0005
0.0005
0.0005
0.0005
0.0005
0.0005
0.0005
0.0005
0.0005
0.0005
0.0005
0.0005
0.0005
0.0005
0.0005
0.0005
0.0005
0.0005
0.0005
0.0005
0.0005
0.0005
0.0005
0.0005
0.0005
0.0005
0.0005
0.0005
0.0005
0.0005
0.0005
0.0005
0.0005
0.0005
0.0005
0.0005
0.0005
0.0005
0.0005
0.0005
0.0005
0.0005
0.0005
0.0005
0.0005
0.0005
0.0005
0.0005
0.0005
0.0005
0.0005
0.0005
0.0005
0.0005
0.0005
0.0005
0.0005
0.0005
0.0005
0.0005
0.0005
0.0005
0.0005
0.0005
0.0005
0.0005
0.0005
0.0005
0.0005
0.0005
0.0005
0.0005
0.0005
0.0005
0.0005
0.0005
0.0005
0.0005
0.0005
0.0005
0.0005
0.0005
0.0005
0.0005
0.0005
0.0005
0.0005
0.0005
0.0005
0.0005
0.0005
0.0005
0.0005
0.0005
0.0005
0.0005
0.0005
0.0005
0.0005
0.0005
0.0005
0.0005
0.0005
0.0005
0.0005
0.0005
0.0005
0.0005
0.0005
0.0005
0.0005
0.0005
0.0005
0.0005
0.0005
0.0005
0.0005
0.0005
0.0005
0.0005
0.0005
0.0005
0.0005
0.0005
0.0005
0.0005
0.0005
0.0005
0.0005
0.0005
0.0005
0.0005
0.0005
0.0005
0.0005
0.0005
0.0005
0.0005
0.0005
0.0005
0.0005
0.0005
0.0005
0.0005
0.0005
0.0005
0.0005
0.0005
0.0005
0.0005
0.0005
0.0005
0.0005
0.0005
0.0005
0.0005
0.0005
0.0005
0.0005
0.0005
0.0005
0.0005
0.0005
0.0005
0.0005
0.0005
0.0005
0.0005
0.0005
0.0005
0.0005
0.0005
0.0005
0.0005
0.0005
0.0005
0.0005

SCALARS mass float 1
LOOKUP_TABLE default
1.46608e-07
1.46608e-07
1.46608e-07
1.46608e-07
1.46608e-07
1.46608e-07
1.46608e-07
1.46608e-07
1.46608e-07
1.46608e-07
1.46608e-07
1.46608e-07
1.46608e-07
1.46608e-07
1.46608e-07
1.46608e-07
1.46608e-07
1.46608e-07
1.46608e-07
1.46608e-07
1.46608e-07
1.46608e-07
1.46608e-07
1.46608e-07
1.46608e-07
1.46608e-07
1.46608e-07
1.46608e-07
1.46608e-07
1.46608e-07
1.46608e-07
1.46608e-07
1.46608e-07
1.46608e-07
1.46608e-07
1.46608e-07
1.46608e-07
1.46608e-07
1.46608e-07
1.46608e-07
1.46608e-07
1.46608e-07
1.46608e-07
1.46608e-07
1.46608e-07
1.46608e-07
1.46608e-07
1.46608e-07
1.46608e-07
1.46608e-07
1.46608e-07
1.46608e-07
1.46608e-07
1.46608e-07
1.46608e-07
1.46608e-07
1.46608e-07
1.46608e-07
1.46608e-07
1.46608e-07
1.46608e-07
1.46608e-07
1.46608e-07
1.46608e-07
1.46608e-07
1.46608e-07
1.46608e-07
1.46608e-07
1.46608e-07
1.46608e-07
1.46608e-07
1.46608e-07
1.46608e-07
1.46608e-07
1.46608e-07
1.46608e-07
1.46608e-07
1.46608e-07
1.46608e-07
1.46608e-07
1.46608e-07
1.46608e-07
1.46608e-07
1.46608e-07
1.46608e-07
1.46608e-07
1.46608e-07
1.46608e-07
1.46608e-07
1.46608e-07
1.46608e-07
1.46608e-07
1.46608e-07
1.46608e-07
1.46608e-07
1.46608e-07
1.46608e-07
1.46608e-07
1.46608e-07
1.46608e-07
1.46608e-07
1.46608e-07
1.46608e-07
1.46608e-07
1.46608e-07
1.46608e-07
1.46608e-07
1.46608e-07
1.46608e-07
1.46608e-07
1.46608e-07
1.46608e-07
1.46608e-07
1.46608e-07
1.46608e-07
1.46608e-07
1.46608e-07
1.46608e-07
1.46608e-07
1.46608e-07
1.46608e-07
1.46608e-07
1.46608e-07
1.46608e-07
1.46608e-07
1.46608e-07
1.46608e-07
1.46608e-07
1.46608e-07
1.46608e-07
1.46608e-07
1.46608e-07
1.46608e-07
1.46608e-07
1.46608e-07
1.46608e-07
1.46608e-07
1.46608e-07
1.46608e-07
1.46608e-07
1.46608e-07
1.46608e-07
1.46608e-07
1.46608e-07
1.46608e-07
1.46608e-07
1.46608e-07
1.46608e-07
1.46608e-07
1.46608e-07
1.46608e-07
1.46608e-07
1.46608e-07
1.46608e-07
1.46608e-07
1.46608e-07
1.46608e-07
1.46608e-07
1.46608e-07
1.46608e-07
1.46608e-07
1.46608e-07
1.46608e-07
1.46608e-07
1.46608e-07
1.46608e-07
1.46608e-07
1.46608e-07
1.46608e-07
1.46608e-07
1.46608e-07
1.46608e-07
1.46608e-07
1.46608e-07
1.46608e-07
1.46608e-07
1.46608e-07
1.46608e-07
1.46608e-07
1.46608e-07
1.46608e-07
1.46608e-07
1.46608e-07
1.46608e-07
1.46608e-07
1.46608e-07
1.46608e-07
1.46608e-07
1.46608e-07
1.46608e-07
1.46608e-07
1.46608e-07
1.46608e-07
1.46608e-07
1.46608e-07
1.46608e-07
1.46608e-07
1.46608e-07
1.46608e-07
1.46608e-07
1.46608e-07
1.46608e-07
1.46608e-07
1.46608e-07
1.46608e-07
1.46608e-07
1.46608e-07
1.46608e-07
1.46608e-07
1.46608e-07
1.46608e-07
1.46608e-07
1.46608e-07
1.46608e-07
1.46608e-07
1.46608e-07
1.46608e-07
1.46608e-07
1.46608e-07
1.46608e-07
1.46608e-07
1.46608e-07
1.46608e-07
1.46608e-07
1.46608e-07
1.46608e-07
1.46608e-07
1.46608e-07
1.46608e-07
1.46608e-07
1.46608e-07
1.46608e-07
1.46608e-07
1.46608e-07
1.46608e-07
1.46608e-07
1.46608e-07
1.46608e-07
1.46608e-07
1.46608e-07
1.46608e-07
1.46608e-07
1.46608e-07
1.46608e-07
1.46608e-07
1.46608e-07
1.46608e-07
1.46608e-07
1.46608e-07
1.46608e-07
1.46608e-07
1.46608e-07
1.46608e-07
1.46608e-07
1.46608e-07
1.46608e-07
1.46608e-07
1.46608e-07
1.46608e-07
1.46608e-07
1.46608e-07

VECTORS velocity float
0.00858584 -0.00020664 0.00130976
0.000125593 -0.00350082 -0.0119539
0.000933052 0.00140503 0.000988553
0.00245207 0.0172151 -0.00432057
0.00776807 0.00521857 -0.00280477
-0.116115 -0.109848 -0.100078
0.00249197 0.00221106 0.00125481
0.000296844 0.0225371 -0.00545274
-0.00293364 0.0122105 -0.0269497
-0.00231413 0.00809292 -0.0210409
-0.00509666 -0.00387436 -0.00664815
0.00359507 -0.00118709 -0.000185128
0.00206171 0.00153333 -0.000566822
0.00134408 0.0156873 -0.0134964
0.0411244 0.00348432 -0.0436699
0.0150559 0.00194308 -0.0144171
0.00495841 -0.00169376 -0.00809184
-4.90628e-05 -0.000375871 -0.000678269
0.00067536 -0.00376536 -0.00206191
0.000398196 0.00172488 -0.00277348
0.00565774 -0.000862583 0.00189304
-0.0175412 0.00690316 -0.0467308
-0.000149646 -1.88454e-05 0.000320564
-0.0415494 -0.0875896 -0.0577729
0.00705663 -0.000899573 0.00240823
0.00680661 0.00944077 0.000825031
0.00321693 0.00595901 0.0115246
-0.000171158 0.0236513 0.0108756
-0.00621595 0.0122577 -0.00650374
-0.000524012 -0.000680689 -0.000473129
9.01251e-15 -2.34054e-14 1.89546e-13
-0.00950516 -0.000474324 -0.00664861
0.000331448 0.000881356 -0.00029584
-6.31749e-05 0.000577261 -0.0011364
-0.000302643 -0.00142021 0.000181482
0.00787492 0.00649647 -0.00290747
0.000173858 0.00840239 0.0244902
-0.0163046 -0.0134567 -0.00863815
0.00146632 -0.024349 0.00430439
-0.000660917 -0.00255934 -0.000744282
0.00522027 -0.00553318 -0.00477715
0.000846894 -0.0131882 0.00385308
0.0110117 -0.00607901 -0.0161648
0.000157795 -0.00172062 -0.00379829
0.00267671 0.00088585 0.0208794
0.00183415 0.0143372 -0.00602872
0.0099105 0.0113861 0.00376449
0.00197608 0.00350628 -0.0104729
0.00597247 0.00309745 -6.99797e-05
0.000594685 0.0185998 0.0141896
-0.000434382 -0.0187542 -0.0162049
6.09984e-15 2.72011e-14 1.94806e-13
-0.00366308 -0.000341638 -0.00198475
0.00104028 0.0106896 -0.00851243
-0.00018552 -7.77612e-05 0.000238856
0.00139413 -0.0100847 0.0150324
-9.41902e-05 -0.000226457 -2.13132e-05
-0.0836987 -0.141949 -0.105194
-0.00944905 0.0181783 -0.0244333
-3.54844e-05 0.00198405 -0.000946139
-0.00185581 0.0392521 -0.040118
0.00409542 0.00569289 -0.00298417
-0.000205849 -0.010267 0.0215186
-0.0168146 -0.0741228 0.0596153
-0.00993196 0.0103447 -0.00104362
0.00463925 -0.00107598 0.000886785
0.00251766 -0.00244246 -0.00651973
0.00357623 0.003569 0.00535526
0.00192251 0.00501036 -0.013103
0.00203227 -0.00507429 0.0232112
0.000103876 -0.000355908 -0.00214163
0.0456651 -0.0416059 -0.0123183
-0.0238735 -0.0366196 -0.0830441
0.040399 0.0141559 0.027073
-0.0027565 -0.00129323 -0.00379524
-0.00343084 0.0247873 0.00233035
-0.00151139 -0.00250669 -0.00397569
-0.0028091 0.00306739 -0.00866686
2.99127e-05 0.0292777 -0.0022899
0.000891778 -6.04361e-05 0.00618758
0.00494722 0.00580822 -0.00127696
-0.000328703 0.000456635 -0.000243004
0.00130864 0.00155059 0.00357299
-0.00292547 -0.00313148 -0.000481523
-0.00506639 0.00354961 -0.00632637
0.00221035 -0.00669986 -0.00955032
0.000173694 -0.000587191 -0.0262584
0.00274617 -0.000330157 -0.00385327
0.000133953 0.00133229 -0.00348064
0.00382029 0.00376998 0.00334609
-0.000748821 -0.00778169 -0.0066725
-0.0637133 0.0501763 0.0354859
0.00455352 -0.008805 -0.0132408
-0.000818805 0.0107829 0.00236483
-0.0678889 -0.0752358 0.0120206
0.000156395 0.00361343 -0.00218142
0.00114138 0.00204405 0.00374852
0.00199028 0.00374872 -0.00301747
-0.0132819 -0.0602805 -0.0654208
-2.88738e-05 0.000430982 -0.000527567
-0.0146217 -0.0277867 -0.02448
-0.00619975 0.000544499 -0.00755891
0.00293373 0.00107423 -0.000608921
0.000353132 -0.00027057 0.000761124
0.00137454 0.00165561 -0.00091177
0.00290741 0.000845595 -0.00126215
0.0124324 0.0279749 -0.00698517
0.00358514 0.00243114 0.003055
0.00607866 0.0145106 -0.0183037
0.00691603 0.0364438 -0.00836147
-0.00170595 0.00228201 -0.00675631
0.00519798 0.00361252 0.00425698
0.000532469 0.00511773 -0.00997997
0.00367769 0.000576144 0.00289876
-0.00226369 0.0220659 -0.0171119
0.00230335 0.0207486 -7.39193e-05
0.00762969 -0.0026661 -0.00708757
-0.016726 -0.00501058 -0.0213851
-0.00384338 0.00239208 -0.00365539
-0.000886133 0.00102297 -0.00290087
-0.00287726 0.0022398 -0.000499041
0.00332696 -6.20322e-05 0.00179413
-0.00061753 0.00261319 0.00255492
-0.00903897 0.00254175 -0.000492005
-0.00227617 0.0241613 0.00331131
0.00799745 0.00442779 -0.00274335
0.00068333 0.00236383 -0.0045968
-0.00229971 -0.00270788 -0.00106175
-0.0178686 0.0127854 -0.00601855
0.0120451 0.00525716 -0.00139032
-0.00691031 0.00880664 0.00925362
-0.049913 -0.0226194 -0.0359142
-0.00255869 0.00218668 0.00204569
0.00516754 0.0104689 -0.012673
-0.011725 -0.0323184 -0.0342249
0.0161851 -0.018891 -0.00846429
0.00298567 -0.0021214 -0.00706355
0.00142883 -0.0172222 -0.0108967
0.0220253 -0.0591198 -0.0232561
0.0024619 -0.0115129 -0.0137414
-0.239262 0.0131123 0.271674
0.00692615 -0.00038395 -0.00306024
-0.0085604 -0.146818 0.0957401
0.00799601 -0.00904198 -0.0166638
0.0060359 3.32104e-05 0.00158405
0.00023337 0.00432462 0.0244443
0.00583836 0.00205736 -0.000225366
-0.00348505 0.00224959 -0.000912708
-0.00910913 0.00271567 -0.00305766
-0.000149699 0.0282467 -0.0107663
-0.0117495 0.0244034 -0.0216353
0.004998 0.00206248 0.00141073
1.05828e-14 1.89602e-14 2.48644e-13
-0.0156348 -0.00358773 -0.0271303
8.17589e-05 -0.0133268 -0.0297601
0.00176282 -0.0194652 -0.0527438
-1.09215e-15 -1.75122e-14 8.4019e-14
-0.000194571 -0.0258479 -0.00990513
-0.0234231 -0.011922 -0.0027122
-0.0032437 0.0652867 0.129981
0.00103529 -0.0104502 -0.0355105
-0.0211461 0.0156694 -0.111894
-0.00199935 0.00542174 0.0108347
0.00475581 0.0030142 0.00511145
0.00088908 -0.0106806 -0.00157317
0.00188953 0.00139236 0.00508985
-0.0014515 0.00798158 -0.00020025
-0.068058 -0.0222691 0.0114126
0.00286875 0.00266561 0.00397704
0.00315459 -0.000726294 0.000375181
-0.00747158 0.016982 -0.000166267
0.00675585 0.00194488 0.00270045
0.00320418 -0.0108264 -0.00998593
0.00478777 0.0145297 -0.00941985
-8.76208e-05 0.014724 -0.0215039
0.0049783 0.0216831 0.00601446
-0.00238213 -0.0452851 -0.0128569
-0.0426283 0.0173519 0.0200589
0.0130325 0.000571865 -0.000497998
0.0012012 0.000292096 0.00405858
0.000166918 -0.0025269 0.0257274
0.0049757 -0.00753769 -0.0130998
0.00424255 0.000783823 -0.00335124
0.00529112 0.00706665 0.00619076
0.00364135 0.000915865 -0.00425506
0.00576459 0.000990777 0.0013154
0.00225979 0.00161858 -0.00593694
0.00558414 0.00920763 0.00402595
-1.0915e-08 0.0277758 -0.00894354
-0.000593591 0.00169285 -0.00275547
-0.00860308 0.00840949 -0.00219848
0.00583622 0.000288642 -0.000375879
0.0209301 -0.0208419 -0.0381215
0.00210556 0.000348993 -0.00029664
0.000617229 -0.000463151 -0.00521657
0.00186457 0.00838107 -0.00465709
0.000961348 0.000647807 -0.00258273
-0.000337438 -0.0222593 -0.0097332
-0.0359389 0.0177134 -0.0365114
0.0062963 0.00650144 -0.00294957
0.0105901 -0.00522755 -0.0121131
0.00986156 0.0149916 -0.00305227
0.00896978 -0.0118076 0.0022573
-0.00403258 0.00698001 -0.00377825
0.00750171 0.00493679 -0.00320638
0.0258909 -0.0363134 0.0069217
0.00460617 0.00460771 -0.0018704
-0.000330509 -0.0143587 -0.0169202
-0.0334335 -0.0896364 -0.0196277
0.0012134 9.99466e-05 0.000360526
6.50344e-05 -0.000934385 0.000151548
0.00228595 0.0094624 0.0159264
0.00492885 -0.00121165 0.00241282
0.000531032 -0.000335103 -0.00112787
0.00529032 0.00388879 -0.000580494
-0.00304069 0.00368188 -0.0061043
-0.000200296 0.000909856 -0.00191601
-0.00776695 -0.00439596 -0.000228774
-0.000777332 0.000250168 -0.00118287
0.007985 -0.00214744 0.0027817
-0.0103055 0.0194063 0.00530179
0.00785099 0.00533325 -0.00824098
-0.00308238 -0.000740859 -0.00244463
0.000759734 -2.37598e-05 0.00183735
-0.00166781 0.0078808 -0.00122702
0.00395937 -0.00497433 -0.00921464
0.0218265 -0.036494 -0.0565048
0.00484953 -0.00122597 -0.0115875
0.00876114 0.00399514 -0.00980031
0.0021228 0.0017129 0.0020216
0.00253723 -0.000109076 0.00197648
0.0362254 -0.0484375 -0.0389726
0.00541656 0.000563909 0.00347452
0.00108701 0.0052477 0.000526413
-0.00361027 0.00271068 -0.000605331
-0.00357555 0.000353038 0.0058474
-0.136663 -0.0939661 -0.11908
-9.72922e-317 -9.70169e-317 -1.69736e-12
0.00354596 0.00409773 0.00521951
-0.000949713 0.0181984 0.00944176
-0.00297055 0.0017951 -0.00160767
0.00046273 0.000594743 -0.00209765
-0.00211574 0.00251535 -0.0066456
-0.00183945 -0.000971258 -0.000899335
0.00721975 0.00604972 -0.00404997
-0.00131986 0.00648004 -0.00133752
0.00509749 0.000212916 -0.00105597
0.0132847 -0.000873818 -0.00532078
0.00260632 0.00879822 0.00734603
-0.166323 -0.0717693 -0.145715
0.00472988 0.0027057 0.000376665
0.00199675 -0.000883895 0.00187811
-0.00207327 0.0283286 -0.0375505
0.00592765 0.00152952 -0.00317562
-0.000145263 -0.00376979 0.00223829
-0.136578 -0.022138 -0.0480106
0.00238007 -0.000125977 -0.00401001
0.00225757 0.00227124 -0.00503087
0.00136911 -0.0026039 0.000235467
0.00460035 -1.5406e-06 0.00359707
0.00319995 0.00179002 -0.00214902

VECTORS force float
1.58666e-05 -3.46664e-06 -1.29118e-06
-4.54995e-09 2.64571e-09 1.42323e-08
-4.85532e-08 8.5763e-07 5.47595e-07
-2.59706e-07 9.11614e-07 -1.88372e-07
-1.50374e-07 -1.64821e-06 2.09837e-06
0.0 0.0 -1.43822e-06
-8.51956e-06 4.94868e-06 9.48516e-06
-2.55406e-09 1.94067e-08 -2.38383e-08
-1.14645e-07 4.0642e-07 -9.06645e-07
0.0 0.0 -1.43822e-06
-1.99121e-07 3.94539e-07 4.5827e-07
-6.52235e-06 -6.28655e-06 5.63925e-06
-2.48453e-08 6.45802e-08 4.92224e-08
2.04001e-07 4.49491e-07 -4.12595e-07
0.0 0.0 -1.43822e-06
1.85763e-07 5.71e-08 -3.96122e-07
-3.59963e-08 -5.32781e-08 5.93267e-08
2.35542e-09 1.87711e-08 3.36454e-08
-1.71677e-06 5.26567e-06 1.97243e-06
-2.08847e-07 1.24051e-07 5.13139e-07
-2.83042e-06 -6.30062e-06 7.95436e-06
0.0 0.0 -1.43822e-06
1.0554e-08 -8.22391e-07 -4.6645e-07
0.0 0.0 -1.43822e-06
2.45297e-06 -3.81329e-06 7.85799e-06
-3.34532e-07 3.87719e-07 1.53688e-07
7.55484e-08 2.64789e-08 -1.38323e-06
1.04861e-10 9.07957e-09 -1.39406e-08
2.75101e-07 -3.01721e-08 7.95294e-08
7.93535e-07 -2.09429e-06 9.17076e-07
-4.34118e-19 -2.36905e-20 1.90582e-20
0.0 0.0 -1.43822e-06
-5.24351e-06 -2.24191e-07 8.11504e-06
-3.1947e-07 -2.75993e-06 -2.50473e-06
-7.12332e-07 -9.79204e-08 4.29722e-07
2.62875e-07 -3.1252e-07 2.78043e-07
-1.33933e-09 1.65299e-08 -1.31423e-09
-3.71078e-06 3.92121e-06 1.55466e-05
-7.13297e-09 -1.04349e-09 5.5761e-08
-1.3855e-08 -2.36373e-08 2.59627e-08
1.35599e-07 -1.64974e-07 -1.04331e-07
-4.05981e-08 -2.09415e-07 2.77542e-08
0.0 0.0 -1.43822e-06
-8.32009e-07 -1.23351e-06 -2.24787e-06
-2.19425e-08 2.89802e-08 6.89966e-08
3.88568e-08 2.10637e-08 -1.12334e-07
-4.40423e-07 2.88913e-07 5.63515e-08
-1.63822e-06 -5.77426e-07 -2.86565e-06
-2.11154e-06 -1.41013e-06 -4.7667e-06
-7.7573e-09 2.89939e-08 1.81032e-09
7.47174e-08 -6.05761e-08 7.3822e-09
-4.48067e-20 4.23516e-22 1.27055e-21
-1.56928e-06 1.92002e-07 -2.6851e-07
0.0 0.0 -1.43822e-06
3.04904e-07 -9.13485e-07 5.92327e-07
-6.52519e-09 -1.64071e-09 4.26791e-08
-1.04992e-06 1.28477e-06 -1.10379e-06
0.0 0.0 -1.43822e-06
0.0 0.0 -1.43822e-06
-7.16057e-06 -2.44535e-08 1.98007e-06
0.0 0.0 -1.43822e-06
-5.20316e-07 -1.18409e-06 -1.74759e-06
6.05731e-09 2.08902e-09 -1.52504e-07
0.0 0.0 -1.43822e-06
-6.74323e-08 9.13074e-07 1.35301e-07
-3.92122e-06 3.36543e-07 -8.65253e-06
-5.39375e-09 -2.4021e-07 -9.34682e-07
-7.79528e-08 4.92353e-09 -3.68232e-07
1.31373e-05 -8.75244e-06 1.87529e-05
-4.2318e-08 7.44323e-09 4.05036e-08
0.0 0.0 -1.43822e-06
7.43192e-07 -1.83772e-06 5.56166e-07
0.0 0.0 -1.43822e-06
0.0 0.0 -1.43822e-06
0.0 0.0 -1.43822e-06
-2.94512e-07 2.88193e-08 8.2992e-08
-2.69692e-07 -1.23617e-07 -7.01253e-08
-4.87442e-07 -1.14367e-07 -3.84188e-07
-8.67758e-09 -3.8543e-10 4.40138e-08
1.05012e-06 -1.1854e-07 -1.859e-06
-1.85212e-07 7.09915e-07 -2.24787e-08
-1.29289e-08 -1.75561e-06 -6.68659e-07
-4.42691e-07 -5.98885e-07 -8.47758e-07
8.57044e-07 1.31179e-06 1.3254e-06
1.86543e-07 -5.40559e-08 -4.55718e-07
-4.91046e-08 -3.77399e-07 -3.10907e-07
1.37226e-10 -1.54803e-08 -6.80936e-09
3.06305e-08 9.20444e-07 -7.1309e-08
-6.0693e-06 -3.35261e-06 -1.784e-06
-9.86591e-07 -1.74148e-07 4.42707e-08
3.74067e-07 -4.72482e-07 -4.51001e-07
0.0 0.0 -1.43822e-06
-1.69911e-07 -2.34162e-07 -5.61213e-07
2.60406e-08 6.60488e-08 3.08845e-08
0.0 0.0 -1.43822e-06
8.81715e-07 -4.16579e-06 2.27664e-05
3.30464e-07 -2.38776e-07 -1.26975e-07
-9.31988e-07 3.47774e-07 -4.84175e-07
0.0 0.0 -1.43822e-06
1.88795e-07 -6.83769e-07 8.84431e-07
0.0 0.0 -1.43822e-06
-6.98613e-07 1.50798e-07 -1.00267e-06
-3.45366e-07 3.01985e-07 -1.05623e-06
-1.46625e-07 4.15766e-07 2.00396e-07
-6.35323e-07 -6.48729e-07 -2.58638e-07
6.81762e-07 -9.92374e-07 7.50515e-07
1.26235e-07 3.69453e-07 -2.78736e-07
-1.21474e-07 -9.6972e-07 1.31289e-07
0.0 0.0 -1.43822e-06
0.0 0.0 -1.43822e-06
-4.88301e-08 -4.44181e-08 1.82085e-07
1.5645e-06 2.2402e-06 -7.82557e-07
0.0 0.0 -1.43822e-06
-9.5375e-07 8.50943e-07 7.74547e-08
2.78976e-07 6.01182e-07 -5.27866e-07
-4.34037e-08 8.16954e-08 -2.51784e-09
4.27734e-08 -4.1466e-08 1.58514e-08
0.0 0.0 -1.43822e-06
-2.444e-07 -8.4142e-07 5.75926e-07
5.16873e-09 3.39735e-07 -4.91239e-07
1.67231e-08 -8.769e-08 -2.02948e-08
-1.27559e-06 2.37738e-06 -3.76527e-06
-9.23515e-09 -6.19879e-08 -5.7698e-08
1.26878e-07 1.95736e-07 -1.03017e-06
1.20312e-07 3.22131e-07 2.0671e-08
-1.51131e-06 -6.7565e-07 1.83512e-06
-1.32643e-06 3.00049e-07 -1.85702e-06
1.82866e-07 -7.66399e-07 -1.98786e-06
-2.4927e-07 6.69486e-08 2.65979e-07
-3.40868e-07 5.99608e-07 -1.03382e-07
4.19836e-06 1.68893e-06 -1.24446e-06
0.0 0.0 -1.43822e-06
-3.71949e-07 -1.36878e-06 1.13413e-06
0.0 0.0 -1.43822e-06
0.0 0.0 -1.43822e-06
0.0 0.0 -1.43822e-06
0.0 0.0 -1.43822e-06
-1.6224e-08 -5.36059e-08 -1.30816e-08
0.0 0.0 -1.43822e-06
4.6452e-07 -8.82285e-07 1.07409e-07
0.0 0.0 -1.43822e-06
-5.53848e-08 -2.93235e-07 -8.61755e-07
0.0 0.0 -1.43822e-06
0.0 0.0 -1.43822e-06
-2.36627e-06 -2.20074e-06 3.77941e-07
-1.70812e-09 1.81583e-08 7.56598e-09
-1.04752e-06 -1.43921e-06 1.00425e-06
0.0 0.0 -1.43822e-06
2.18701e-07 1.05318e-06 -1.0426e-06
0.0 0.0 -1.43822e-06
0.0 0.0 -1.43822e-06
4.68473e-07 -1.21544e-07 -5.38568e-07
-2.15199e-20 1.15011e-20 0.0