# vtk DataFile Version 3.0
LIGGGHTS particles timestep 12000000
ASCII
DATASET POLYDATA
POINTS 148 float
0.0284111 0.0148299 0.0105993
0.0211856 0.0146439 0.0151235
0.0381958 0.0212432 0.0150514
0.0215605 0.0229551 0.0135711
0.0469582 0.0173732 0.0061601
0.0359819 0.0202811 0.00754678
0.0369727 0.0231888 0.0103159
0.0191567 0.0234043 0.0113667
0.0354721 0.0178688 0.00733503
0.0272137 0.0164532 0.0148325
0.0217229 0.0152382 0.0140449
0.0214069 0.02101 0.0155064
0.0219327 0.0237774 0.0136372
0.022166 0.0140576 0.0147381
0.0211656 0.0229538 0.0149092
0.0224268 0.0229494 0.0150333
0.0384808 0.0201358 0.0156709
0.154353 0.0180393 0.00580707
0.0234962 0.0156399 0.0143526
0.0182724 0.0140461 0.0130091
0.0232638 0.017042 0.00765611
0.039219 0.016845 0.0151986
0.0338365 0.0151412 0.0131886
0.017773 0.0138535 0.0138537
0.0280198 0.0162833 0.0147494
0.0396722 0.0154034 0.0136574
0.0372095 0.0233651 0.0115657
0.0227601 0.0151346 0.0136113
0.0386026 0.0194813 0.0156994
0.0346412 0.0151225 0.00971519
0.0622592 0.0198219 0.00579643
0.0313936 0.0233159 0.012315
0.03347 0.0158636 0.0144251
0.0328618 0.0183359 0.0157062
0.0211118 0.0239928 0.0131702
0.0240555 0.0204837 0.0075752
0.0343196 0.0148378 0.0109957
0.0158413 0.0150534 0.0134895
0.0399034 0.0149732 0.0128838
0.0139962 0.021906 0.0160312
0.0276269 0.0157055 0.0142236
0.0303842 0.0218586 0.00819304
0.019301 0.0238059 0.0121735
0.0309112 0.0231308 0.00996819
0.0204133 0.0207143 0.0156215
0.0154132 0.0231989 0.014187
0.0152306 0.0219755 0.0148504
0.0362921 0.0216466 0.00802321
0.0269555 0.0179983 0.0156274
0.00197664 0.0139506 0.0435188
0.0197753 0.0233354 0.01309
0.0214525 0.0159241 0.0150958
0.0212238 0.0169362 0.015625
0.0910328 0.0189119 0.00581756
0.0154307 0.0226404 0.0156042
0.0243415 0.0157009 0.0155518
0.029141 0.0165995 0.00793791
0.0199981 0.0234125 0.0118093
0.0799952 0.0188016 0.0058611
0.0206999 0.0228546 0.0139218
0.0169712 0.0235403 0.0146127
0.0236841 0.0150613 0.015146
0.0606279 0.0189338 0.00587999
0.028169 0.0147579 0.0115659
0.0235054 0.0182183 0.00728954
0.0383509 0.0206677 0.0154332
0.0325217 0.0198001 0.0157471
0.0210179 0.0179531 0.0158784
0.0229369 0.017891 0.0157885
0.0164979 0.0147843 0.012785
0.0219869 0.0238872 0.0146745
0.0209435 0.0138179 0.0139125
0.0316388 0.0229829 0.0132241
0.0228089 0.0234951 0.0142876
0.0279677 0.014945 0.012607
0.0265266 0.0198845 0.0157424
0.0213636 0.0200251 0.0158417
0.0225114 0.0156344 0.014538
0.0320307 0.0217911 0.0147951
0.0150317 0.0209633 0.0155205
0.0935581 0.0183371 0.00588747
0.0177879 0.023722 0.0139119
0.118145 0.0201427 0.00585321
0.0340509 0.0148131 0.012197
0.020521 0.0146022 0.0143718
0.029666 0.0189312 0.00718883
0.0179838 0.0240693 0.0129911
0.0175659 0.0222489 0.0156667
0.0305908 0.0225236 0.00887248
0.0201811 0.0241562 0.0129795
0.0146123 0.022599 0.0141798
0.0352521 0.0169812 0.00775774
0.0169208 0.0151354 0.0136203
0.0366146 0.0225649 0.00909953
0.0172968 0.0142559 0.013072
0.0175197 0.0146189 0.0119452
0.0170098 0.0239598 0.0133249
0.0322829 0.0209102 0.0153298
0.0203543 0.0140382 0.0131328
0.021217 0.0241925 0.0141208
0.0218569 0.0224494 0.014381
0.0327099 0.019079 0.0158258
0.018951 0.0231352 0.0102335
0.0234386 0.0230362 0.0149144
0.00841998 0.0220148 0.0065957
0.0161914 0.015561 0.0142767
0.0187988 0.0220927 0.0162868
0.016245 0.0236976 0.0139435
0.0311714 0.0233665 0.0113607
0.0289282 0.0159399 0.0085602
0.0143593 0.0229728 0.0152258
0.0188345 0.0137314 0.0137738
0.0331179 0.0173756 0.0154229
0.0193659 0.0140022 0.0129669
0.0780892 0.0197976 0.00577259
0.0226908 0.0190338 0.0159435
0.0197083 0.0143442 0.0138431
0.0778211 0.0188379 0.00591496
0.014652 0.019627 0.0159095
0.0206596 0.0233203 0.0126606
0.0227919 0.0171078 0.00655212
0.0203135 0.0218028 0.0150079
0.0218887 0.0184398 0.0159171
0.0356662 0.0189927 0.00730476
0.022258 0.0171489 0.0155143
0.0287769 0.015476 0.00911621
0.0318581 0.0223976 0.0141928
0.0293777 0.0174419 0.00750378
0.0277321 0.0153381 0.0135379
0.0140842 0.022024 0.0148054
0.0219485 0.0148662 0.0129487
0.018723 0.0145915 0.0142713
0.00842114 0.0323835 0.0435188
0.0364572 0.0220906 0.00845363
0.0258763 0.0221544 0.0143213
0.0816322 0.0177621 0.00599233
0.0388763 0.0190285 0.00572726
0.0197683 0.0228057 0.0138453
0.0208182 0.0234454 0.0116268
0.0255162 0.0232108 0.0127918
0.0615113 0.0173493 0.00607362
0.021315 0.0218465 0.0149663
0.0299717 0.0201461 0.00737804
0.0187567 0.0226354 0.00940859
0.018814 0.0243026 0.013991
0.0207632 0.019227 0.0159492
0.0191804 0.0241204 0.0130952
0.0302188 0.0210918 0.00768741

VERTICES 148 296
1 0
1 1
1 2
1 3
1 4
1 5
1 6
1 7
1 8
1 9
1 10
1 11
1 12
1 13
1 14
1 15
1 16
1 17
1 18
1 19
1 20
1 21
1 22
1 23
1 24
1 25
1 26
1 27
1 28
1 29
1 30
1 31
1 32
1 33
1 34
1 35
1 36
1 37
1 38
1 39
1 40
1 41
1 42
1 43
1 44
1 45
1 46
1 47
1 48
1 49
1 50
1 51
1 52
1 53
1 54
1 55
1 56
1 57
1 58
1 59
1 60
1 61
1 62
1 63
1 64
1 65
1 66
1 67
1 68
1 69
1 70
1 71
1 72
1 73
1 74
1 75
1 76
1 77
1 78
1 79
1 80
1 81
1 82
1 83
1 84
1 85
1 86
1 87
1 88
1 89
1 90
1 91
1 92
1 93
1 94
1 95
1 96
1 97
1 98
1 99
1 100
1 101
1 102
1 103
1 104
1 105
1 106
1 107
1 108
1 109
1 110
1 111
1 112
1 113
1 114
1 115
1 116
1 117
1 118
1 119
1 120
1 121
1 122
1 123
1 124
1 125
1 126
1 127
1 128
1 129
1 130
1 131
1 132
1 133
1 134
1 135
1 136
1 137
1 138
1 139
1 140
1 141
1 142
1 143
1 144
1 145
1 146
1 147

POINT_DATA 148
SCALARS id int 1
LOOKUP_TABLE default
1
5
8
9
11
14
15
16
18
19
21
22
23
26
30
32
33
38
40
41
44
45
47
48
50
53
54
55
59
61
62
63
67
77
79
80
82
83
85
88
93
95
99
101
102
103
105
106
108
112
114
116
119
123
125
127
128
134
135
136
137
138
141
143
144
145
155
158
162
164
166
172
177
178
180
181
187
190
191
195
197
199
204
205
209
212
213
219
221
224
225
226
227
229
230
233
234
235
242
244
249
250
252
253
255
256
257
260
265
266
268
270
271
275
278
281
283
284
285
291
294
295
296
297
298
300
301
303
304
307
312
314
315
316
318
320
322
325
326
328
329
331
333
334
335
337
338
340

SCALARS type int 1
LOOKUP_TABLE default
1
1
1
1
1
1
1
1
1
1
1
1
1
1
1
1
1
1
1
1
1
1
1
1
1
1
1
1
1
1
1
1
1
1
1
1
1
1
1
1
1
1
1
1
1
1
1
1
1
1
1
1
1
1
1
1
1
1
1
1
1
1
1
1
1
1
1
1
1
1
1
1
1
1
1
1
1
1
1
1
1
1
1
1
1
1
1
1
1
1
1
1
1
1
1
1
1
1
1
1
1
1
1
1
1
1
1
1
1
1
1
1
1
1
1
1
1
1
1
1
1
1
1
1
1
1
1
1
1
1
1
1
1
1
1
1
1
1
1
1
1
1
1
1
1
1
1
1

SCALARS radius float 1
LOOKUP_TABLE default
0.0005
0.0005
0.0005
0.0005
0.0005
0.0005
0.0005
0.0005
0.0005
0.0005
0.0005
0.0005
0.0005
0.0005
0.0005
0.0005
0.0005
0.0005
0.0005
0.0005
0.0005
0.0005
0.0005
0.0005
0.0005
0.0005
0.0005
0.0005
0.0005
0.0005
0.0005
0.0005
0.0005
0.0005
0.0005
0.0005
0.0005
0.0005
0.0005
0.0005
0.0005
0.0005
0.0005
0.0005
0.0005
0.0005
0.0005
0.0005
0.0005
0.0005
0.0005
0.0005
0.0005
0.0005
0.0005
0.0005
0.0005
0.0005
0.0005
0.0005
0.0005
0.0005
0.0005
0.0005
0.0005
0.0005
0.0005
0.0005
0.0005
0.0005
0.0005
0.0005
0.0005
0.0005
0.0005
0.0005
0.0005
0.0005
0.0005
0.0005
0.0005
0.0005
0.0005
0.0005
0.0005
0.0005
0.0005
0.0005
0.0005
0.0005
0.0005
0.0005
0.0005
0.0005
0.0005
0.0005
0.0005
0.0005
0.0005
0.0005
0.0005
0.0005
0.0005
0.0005
0.0005
0.0005
0.0005
0.0005
0.0005
0.0005
0.0005
0.0005
0.0005
0.0005
0.0005
0.0005
0.0005
0.0005
0.0005
0.0005
0.0005
0.0005
0.0005
0.0005
0.0005
0.0005
0.0005
0.0005
0.0005
0.0005
0.0005
0.0005
0.0005
0.0005
0.0005
0.0005
0.0005
0.0005
0.0005
0.0005
0.0005
0.0005
0.0005
0.0005
0.0005
0.0005
0.0005
0.0005

SCALARS mass float 1
LOOKUP_TABLE default
1.46608e-07
1.46608e-07
1.46608e-07
1.46608e-07
1.46608e-07
1.46608e-07
1.46608e-07
1.46608e-07
1.46608e-07
1.46608e-07
1.46608e-07
1.46608e-07
1.46608e-07
1.46608e-07
1.46608e-07
1.46608e-07
1.46608e-07
1.46608e-07
1.46608e-07
1.46608e-07
1.46608e-07
1.46608e-07
1.46608e-07
1.46608e-07
1.46608e-07
1.46608e-07
1.46608e-07
1.46608e-07
1.46608e-07
1.46608e-07
1.46608e-07
1.46608e-07
1.46608e-07
1.46608e-07
1.46608e-07
1.46608e-07
1.46608e-07
1.46608e-07
1.46608e-07
1.46608e-07
1.46608e-07
1.46608e-07
1.46608e-07
1.46608e-07
1.46608e-07
1.46608e-07
1.46608e-07
1.46608e-07
1.46608e-07
1.46608e-07
1.46608e-07
1.46608e-07
1.46608e-07
1.46608e-07
1.46608e-07
1.46608e-07
1.46608e-07
1.46608e-07
1.46608e-07
1.46608e-07
1.46608e-07
1.46608e-07
1.46608e-07
1.46608e-07
1.46608e-07
1.46608e-07
1.46608e-07
1.46608e-07
1.46608e-07
1.46608e-07
1.46608e-07
1.46608e-07
1.46608e-07
1.46608e-07
1.46608e-07
1.46608e-07
1.46608e-07
1.46608e-07
1.46608e-07
1.46608e-07
1.46608e-07
1.46608e-07
1.46608e-07
1.46608e-07
1.46608e-07
1.46608e-07
1.46608e-07
1.46608e-07
1.46608e-07
1.46608e-07
1.46608e-07
1.46608e-07
1.46608e-07
1.46608e-07
1.46608e-07
1.46608e-07
1.46608e-07
1.46608e-07
1.46608e-07
1.46608e-07
1.46608e-07
1.46608e-07
1.46608e-07
1.46608e-07
1.46608e-07
1.46608e-07
1.46608e-07
1.46608e-07
1.46608e-07
1.46608e-07
1.46608e-07
1.46608e-07
1.46608e-07
1.46608e-07
1.46608e-07
1.46608e-07
1.46608e-07
1.46608e-07
1.46608e-07
1.46608e-07
1.46608e-07
1.46608e-07
1.46608e-07
1.46608e-07
1.46608e-07
1.46608e-07
1.46608e-07
1.46608e-07
1.46608e-07
1.46608e-07
1.46608e-07
1.46608e-07
1.46608e-07
1.46608e-07
1.46608e-07
1.46608e-07
1.46608e-07
1.46608e-07
1.46608e-07
1.46608e-07
1.46608e-07
1.46608e-07
1.46608e-07
1.46608e-07
1.46608e-07
1.46608e-07
1.46608e-07
1.46608e-07

VECTORS velocity float
2.72345e-05 -0.00713138 0.0249228
0.00535385 -0.032783 -0.000142696
0.00437165 0.00434654 0.00286741
0.000888872 0.00615084 -0.00968865
4.50887e-15 2.51205e-14 1.72927e-13
0.000333087 -0.0244817 -0.00675531
0.00114242 -0.00685548 -0.0199081
0.00120636 0.000452719 -0.0210239
0.0011112 -0.0204473 0.00628739
0.000867377 0.0178447 0.0107343
0.00579992 0.0157392 0.000113999
-0.000125255 0.0191789 -0.00925639
0.000493071 0.000456462 -0.000128662
-0.00112933 0.00652836 -0.0122353
-0.0160257 -0.0162637 -0.00978713
0.000898334 -0.000785096 -0.00153766
0.00288165 0.00995077 0.00155167
8.5697e-15 -2.37134e-14 1.89529e-13
0.0115834 0.000194125 0.000201365
-0.000678804 3.65043e-05 0.000426063
0.00236912 -0.0177517 0.00710476
0.00134895 0.0187421 0.0130355
0.00026188 0.0100187 0.0231366
0.000454455 -0.000464361 0.00104329
0.000762816 0.0154829 0.0116584
0.00161449 0.0120566 0.0164833
0.000352714 0.00100149 -0.0249957
0.00359588 -0.0273002 -0.0421548
0.00294133 0.0168103 -0.000625638
0.00115423 -0.00867017 0.0185006
-4.86324e-15 -6.78168e-14 1.88021e-13
0.00127977 0.00369694 -0.022192
0.00121164 0.0128044 0.0164507
0.00349544 0.0139009 0.00193242
-0.00104639 -0.00135349 4.79872e-05
-0.000134374 -0.0238725 -0.0111529
0.00182119 -0.00192279 0.0203597
0.00388108 0.0020219 0.00702187
0.00137193 0.00554797 0.016851
-0.140905 -0.0791441 1.63532e-05
-8.29357e-05 0.00299795 0.00734498
0.000358239 -0.0181614 -0.0166986
0.0042962 -0.00490928 -0.0078869
0.000271015 -0.00854767 -0.0235662
0.000178703 0.024366 -0.00983867
0.011006 0.00249612 -0.0109921
-0.0174834 0.013075 -0.0107411
0.00301271 -0.00181955 -0.0028089
0.000107088 0.0232638 0.00958895
-9.69236e-317 -9.6912e-317 3.10717e-12
-0.0104977 -0.00591373 -0.0291367
0.0082715 -0.0149666 0.000507227
0.00432423 0.0107988 -0.00517166
-1.03396e-14 1.48984e-14 1.99437e-13
-0.0570218 -0.0216379 0.0369206
-0.00571952 -0.00637013 -0.00264311
0.00137288 -0.0176436 0.0127703
0.00070331 0.00113964 -0.0171519
1.51686e-14 5.18514e-14 2.19701e-13
0.0016786 0.00247502 -0.0103879
0.0140952 0.00327372 -0.0104155
-0.00198629 -0.00361819 -0.000186466
5.2385e-15 2.34394e-14 1.67829e-13
0.00145103 -0.000397703 0.0167314
0.000117206 -0.0248656 0.00456602
0.00270094 0.0125464 -0.00728404
0.00017959 0.0203232 -0.00564569
-5.77255e-05 0.0264283 0.00835628
1.20736e-10 0.0232366 0.0063679
-0.00135121 -0.000855546 0.0032256
0.000104923 6.97618e-05 -0.000185501
0.000447929 0.00156166 -0.00669884
-0.000144862 0.0113305 -0.0231074
8.60751e-05 -5.82255e-05 -3.72238e-05
0.000146411 0.006784 0.0238733
0.000179466 0.0251648 -0.00393901
0.00559972 0.031871 -0.00687609
0.0131028 0.0237324 -0.00100213
0.000119521 0.021086 -0.0146157
-0.00961207 -0.0139019 0.00395893
1.06499e-14 1.89375e-14 2.48643e-13
0.016354 0.00547585 -0.0136213
-1.10931e-15 -1.75118e-14 8.40189e-14
0.000403702 0.0014873 0.0184027
-0.00465713 -0.000948449 -0.000247434
0.000875072 -0.0209795 0.000118153
-2.30805e-05 -0.000624918 -1.45345e-05
-0.0300381 -0.0489143 0.0346301
0.000358106 -0.014674 -0.0182552
-0.00266433 -0.00346159 -0.00711976
0.00982403 0.00480151 -0.00517865
0.000132197 -0.0224897 0.0120585
0.00548881 -0.00199037 0.000198157
0.00252993 -0.011176 -0.0137858
-0.000646808 -0.000501606 0.00170495
0.00157215 -0.00141109 0.00280282
0.00448727 0.00157027 -0.00467242
0.000172956 0.0228168 -0.0108226
-0.00165364 0.0013385 -0.00387626
-8.86753e-05 -0.000161335 0.000107716
0.0021521 0.00984025 -0.0118615
0.00230283 0.0135583 0.00155172
0.00091532 -0.00775261 -0.0208487
0.000665921 -0.00244195 -0.00258739
5.71409e-15 -2.44737e-14 6.92163e-14
0.0168887 0.000335378 0.00235082
-0.0282717 -0.121715 0.10954
0.0103628 0.00486879 -0.00599414
0.000506969 -0.00015968 -0.0247759
0.00376027 -0.0116194 0.00979129
0.0169243 0.0234704 -0.0107623
-7.21626e-05 -1.3855e-05 -1.38579e-05
0.00017118 0.0227489 0.00916506
-0.00393656 0.00217323 -0.00326221
2.40568e-15 -4.18121e-14 1.54367e-13
0.000151633 0.0265607 0.00010143
-0.008664 0.000679431 -0.00168628
5.2143e-15 -3.12772e-14 -1.20225e-13
0.000503389 0.0246713 -0.00311976
-6.52236e-05 0.00352652 -0.0110273
2.64833e-14 -5.643e-14 -2.04449e-13
-0.0076524 0.031808 -0.0262659
0.000511282 0.0258273 0.00306483
-0.000157667 -0.0256681 -0.00193038
0.00309043 0.010943 0.00532296
0.00309793 -0.00626833 0.00809944
0.000523847 0.0142492 -0.0192183
0.000441642 -0.0238991 0.00817612
0.00169445 0.00886233 0.0165601
0.00506701 0.0105881 -0.00894839
0.00694607 -0.00131467 0.032232
-0.00130967 -9.15706e-05 -0.000112489
-9.72922e-317 -9.70169e-317 -1.69736e-12
0.00409538 -0.00626719 -0.00818577
0.000554637 0.0169716 -0.0181184
1.53047e-14 5.18624e-14 2.19689e-13
1.55484e-15 -7.40806e-15 3.66675e-14
0.0023262 0.00861163 -0.0141881
0.0020184 -0.00110164 -0.00608541
0.00163651 0.00654014 -0.0209573
5.25093e-15 2.34357e-14 1.67829e-13
-0.0056346 0.0162938 -0.0118456
0.00015292 -0.0242331 -0.00607816
0.00147477 -0.0135315 -0.0199769
-0.000681397 0.00137688 -0.00549397
-0.000367929 0.0341683 -0.000908623
-0.00618601 0.0023689 -0.010109
0.000479585 -0.0210653 -0.0102766

VECTORS force float
3.03193e-08 6.9888e-08 -1.25697e-07
0.0 0.0 -1.43822e-06
-7.685e-08 -9.79915e-07 9.72958e-07
-7.24627e-08 1.00106e-06 -3.4274e-06
-4.3609e-21 0.0 2.11758e-22
-1.67644e-07 7.93048e-08 9.39407e-08
-1.51749e-08 -2.82982e-08 -3.86736e-08
-8.91947e-07 1.33687e-06 2.44086e-06
-2.65978e-09 -4.19468e-08 5.90145e-08
2.4335e-07 -1.53714e-07 -1.89636e-07
0.0 0.0 -1.43822e-06
-2.18775e-07 1.80432e-07 -7.30594e-07
-3.90728e-07 -7.17013e-07 -3.7408e-07
-2.51101e-07 3.47884e-07 -8.65278e-07
0.0 0.0 -1.43822e-06
-6.13692e-07 -7.1473e-07 -1.17651e-06
-1.61584e-07 -1.32997e-07 1.16313e-07
1.18472e-18 2.55169e-19 -2.43522e-20
-8.15099e-06 2.44543e-06 2.32068e-06
-5.04715e-09 -6.21658e-08 3.44965e-08
3.49927e-08 1.07438e-07 -4.83145e-08
4.40115e-09 7.24731e-10 -2.00106e-08
-1.11999e-09 2.09015e-08 -1.2703e-09
3.64121e-07 -1.47497e-07 2.46043e-07
1.73545e-06 7.41134e-07 4.09518e-07
2.09874e-08 3.95888e-08 6.53058e-09
-2.00852e-09 -1.16168e-08 -5.1698e-09
-2.00176e-08 -5.12492e-07 -6.22325e-07
-4.39974e-08 5.02423e-08 2.44485e-08
4.65816e-08 8.47751e-09 -1.43729e-07
5.09173e-19 -2.49345e-20 3.81165e-21
-1.99303e-08 -3.07807e-09 -4.36093e-08
1.25079e-08 -5.39862e-08 -8.35156e-08
-1.25601e-08 -3.22268e-07 -3.42015e-08
2.74064e-06 -1.37663e-06 -6.2417e-06
-3.26315e-10 -6.20565e-09 1.48187e-08
8.53036e-09 1.45386e-08 -2.63846e-08
-1.86551e-08 1.93241e-07 -1.10423e-07
-2.34007e-08 2.11998e-08 3.44511e-08
0.0 0.0 -1.43822e-06
1.46426e-07 7.25184e-07 5.81723e-07
-8.83498e-11 -1.42197e-08 4.14524e-09
3.84666e-06 -1.74679e-06 4.59759e-06
-4.06622e-09 -1.6529e-08 -3.66875e-09
-2.78584e-09 4.25026e-09 -2.60354e-08
-1.75499e-06 -1.22723e-06 9.10695e-07
2.76166e-07 5.90456e-07 -5.74385e-07
3.11867e-09 -1.20572e-08 3.59839e-08
-1.0225e-06 1.08082e-06 1.163e-06
0.0 0.0 0.0
3.78681e-06 -8.1227e-06 -4.57625e-05
1.27803e-07 7.6723e-08 -1.37587e-06
1.17969e-07 5.68078e-08 -1.36989e-06
-2.38228e-22 -7.10714e-21 6.35275e-22
0.0 0.0 -1.43822e-06
-6.20511e-08 -8.35274e-08 -1.27378e-08
-1.32807e-08 -3.75107e-08 3.38585e-08
6.24512e-07 -2.01322e-07 4.53847e-07
-1.38662e-19 -2.39287e-20 1.14349e-20
-4.53385e-06 1.84406e-05 -1.70054e-05
2.51663e-07 6.62379e-09 -5.35117e-07
3.48329e-06 -5.83763e-07 3.35783e-06
-1.5551e-21 -2.14405e-21 0.0
-5.7748e-08 -1.18891e-08 9.66689e-08
-6.07824e-10 -5.31873e-09 1.57244e-08
5.36026e-08 -3.03677e-07 2.01602e-07
-1.40654e-07 1.19583e-06 -7.07284e-07
2.97887e-08 -2.60268e-07 4.28205e-07
2.70393e-16 5.0601e-09 -1.81449e-08
1.01673e-07 -4.75034e-08 1.66542e-08
3.84053e-08 2.20896e-07 -5.33409e-07
0.0 0.0 -1.43822e-06
8.17234e-09 -2.259e-08 3.66175e-09
3.20152e-07 -4.16344e-09 1.81667e-07
-1.04427e-08 3.9852e-08 2.38837e-08
-5.34979e-10 3.09315e-09 -1.5555e-08
-2.19238e-07 -1.56641e-07 -7.37199e-09
0.0 0.0 -1.43822e-06
-2.19482e-10 -9.07818e-09 -9.20598e-09
8.62854e-08 7.31946e-07 -2.43564e-07
8.06137e-20 -2.80712e-20 -1.27055e-21
-2.86096e-07 8.00495e-07 -1.24988e-06
-1.1071e-20 2.64698e-22 0.0
-3.22229e-10 -1.94771e-08 -2.45078e-07
0.0 0.0 -1.43822e-06
4.13072e-09 8.87555e-09 1.36756e-08
-8.47237e-08 1.05672e-08 2.05639e-08
0.0 0.0 -1.43822e-06
-1.68594e-09 -1.96161e-08 1.75432e-10
5.97892e-06 -7.3762e-06 -1.32621e-05
-1.70414e-07 -1.25106e-07 3.83471e-07
-1.06954e-09 3.79769e-10 1.46163e-08
4.61202e-08 -5.30328e-08 4.67205e-09
-1.15024e-08 -5.97032e-08 -7.49326e-08
4.17013e-08 -1.02666e-07 2.59884e-07
2.23663e-08 -1.51876e-08 2.55846e-08
1.70458e-07 -3.83091e-07 2.12191e-06
-8.96986e-10 -5.4612e-11 -1.68355e-08
-1.37011e-08 -3.41908e-08 1.73862e-07
-1.15501e-06 -7.62197e-07 -2.67738e-07
1.75662e-06 -8.78017e-06 2.56612e-06
1.38267e-07 1.44038e-09 1.15587e-07
-8.54438e-09 -2.66881e-08 -2.31513e-08
-1.57746e-07 -3.28874e-08 1.1736e-07
9.40604e-20 -7.41154e-21 -8.68209e-21
-1.47753e-07 -4.30925e-08 -3.11334e-07
0.0 0.0 -1.43822e-06
1.17241e-06 7.10704e-07 2.09473e-06
-1.59753e-09 -1.11548e-08 -3.47426e-08
-3.00552e-08 -5.35695e-09 -5.58531e-08
0.0 0.0 -1.43822e-06
-1.15274e-09 -2.33337e-08 -3.59062e-08
-6.81079e-10 1.33973e-08 -9.88548e-09
2.46885e-08 5.28638e-08 -1.36885e-06
-3.04402e-22 -1.05879e-22 0.0
-5.73361e-08 2.53473e-08 -1.41091e-07
0.0 0.0 -1.43822e-06
1.93891e-21 3.70577e-22 0.0
-6.07942e-10 3.08512e-10 -2.05328e-08
1.42761e-05 -2.93699e-06 -1.51133e-05
-6.06158e-21 -1.37643e-21 -4.23516e-22
1.84471e-07 3.18755e-07 -4.35522e-07
1.36141e-07 -1.90756e-07 -8.18158e-08
3.86621e-09 -6.96245e-10 1.65369e-08
-8.81102e-08 -6.43573e-08 -2.69206e-08
-2.37121e-09 6.05137e-08 -1.82966e-07
-6.55299e-09 -6.37678e-09 -1.6728e-08
4.13562e-09 4.17915e-08 -1.47716e-09
-3.13189e-07 8.70425e-07 1.30971e-06
-2.31528e-07 1.05084e-06 -1.0104e-06
4.03379e-05 -2.67689e-05 -6.00315e-05
1.64377e-07 -2.2169e-08 1.71883e-08
0.0 0.0 0.0
-2.18909e-09 -1.08288e-08 -5.67649e-08
-1.01575e-08 2.21234e-09 -1.80095e-08
-4.49457e-20 6.67038e-21 1.48231e-21
6.50826e-20 4.44692e-21 -1.69407e-21
-3.73475e-07 1.09894e-05 -2.30379e-05
9.47461e-07 -1.19359e-06 -3.83255e-06
-1.42626e-08 -1.4202e-08 -2.13634e-08
1.85288e-22 0.0 0.0
-1.34688e-07 -2.56694e-06 2.32445e-06
-7.36289e-10 -9.42797e-09 1.29336e-08
-3.35527e-08 -6.6899e-08 -3.88036e-08
1.59132e-05 -1.10555e-05 2.10084e-05
1.01664e-08 -4.23937e-07 -4.69133e-08
1.59278e-05 -1.29103e-05 2.18398e-05
-6.25786e-09 -2.21928e-08 5.53187e-09
