# vtk DataFile Version 3.0
LIGGGHTS particles timestep 10000000
ASCII
DATASET POLYDATA
POINTS 165 float
0.0260051 0.0227416 0.0136149
0.0202439 0.0232356 0.0128208
0.0217596 0.0163089 0.0149963
0.0347221 0.014851 0.0108133
0.0179607 0.0142205 0.0127383
0.0469582 0.0173732 0.0061601
0.0329647 0.0221639 0.0145079
0.0339877 0.0154675 0.0138801
0.0233614 0.0160708 0.00836965
0.0325826 0.0208842 0.0153094
0.0247329 0.0217918 0.0083549
0.022063 0.0230113 0.0149087
0.0203205 0.0238885 0.0146853
0.0211197 0.0239384 0.0130373
0.0158014 0.0161501 0.0148786
0.0171734 0.0151107 0.0135613
0.0167198 0.0141804 0.0136496
0.0354875 0.0166174 0.0079246
0.154353 0.0180393 0.00580707
0.0216464 0.0142398 0.0139046
0.0158816 0.0144876 0.0141002
0.021964 0.0155988 0.0143224
0.0192309 0.0241263 0.0127931
0.0365686 0.0213082 0.00788406
0.0313554 0.0233102 0.010642
0.0204069 0.0234484 0.0115286
0.0252743 0.0169493 0.0163097
0.0367995 0.0219906 0.00831819
0.0342798 0.0149331 0.0126281
0.0225874 0.0207477 0.015618
0.0358106 0.0180735 0.00729296
0.0320557 0.0227536 0.0136516
0.0622592 0.0198219 0.00579643
0.029266 0.0158231 0.00866127
0.0176566 0.0235452 0.014122
0.0311421 0.0230441 0.00974646
0.022782 0.0235535 0.0152589
0.0307838 0.0219816 0.0083123
0.0216044 0.0225768 0.0141768
0.0189021 0.0244194 0.0136652
0.0183794 0.024101 0.0144282
0.0317873 0.0232261 0.0126191
0.0194946 0.0236656 0.0140833
0.0371241 0.0229465 0.00974831
0.0213269 0.0220518 0.0149931
0.0187403 0.0213466 0.0162307
0.0247651 0.016127 0.0158623
0.0283183 0.014894 0.0124345
0.0168704 0.0239174 0.0134399
0.028873 0.0150347 0.0100708
0.0225402 0.0168246 0.0153506
0.0195265 0.0234235 0.0112581
0.0187987 0.0232724 0.0148029
0.018965 0.0223953 0.00896355
0.0330414 0.0191873 0.0158288
0.0240547 0.0190102 0.00724299
0.0223473 0.0239013 0.0144967
0.00197664 0.0139506 0.0435188
0.0223639 0.0148261 0.0123344
0.0187105 0.0151184 0.0149471
0.0202344 0.0240582 0.0127259
0.0161637 0.0225646 0.0142181
0.0910328 0.0189119 0.00581756
0.0221529 0.0150974 0.0134782
0.0225555 0.0151839 0.0152793
0.0270258 0.0192707 0.0158184
0.0208426 0.0242841 0.0139276
0.0241418 0.0197941 0.0167
0.0799952 0.0188016 0.0058611
0.0198977 0.0244547 0.0135802
0.0142618 0.0226048 0.0153315
0.0231816 0.015361 0.0140015
0.0602248 0.0188345 0.00590648
0.0260086 0.0234094 0.0113559
0.0178322 0.0157643 0.0144888
0.0351549 0.0155967 0.00892034
0.0212984 0.023067 0.0133907
0.0146888 0.0214922 0.0152176
0.0303494 0.0204196 0.00743684
0.015557 0.022992 0.013548
0.0211571 0.0234411 0.0121879
0.0220323 0.0196186 0.0159055
0.0207984 0.0147809 0.014606
0.0197727 0.0230945 0.0149488
0.021243 0.0184501 0.0159089
0.0208083 0.0231482 0.0142175
0.0294645 0.0164354 0.00805778
0.0199207 0.014642 0.0155545
0.0257078 0.0233419 0.0122396
0.0235581 0.0169855 0.00771411
0.0169699 0.0145527 0.0127559
0.0191829 0.0143468 0.013854
0.0298239 0.0180867 0.0072919
0.0216249 0.0211861 0.0153956
0.0935581 0.0183371 0.00588747
0.0161277 0.0236442 0.0140389
0.118145 0.0201427 0.00585321
0.0316285 0.023373 0.0116632
0.0199136 0.0140033 0.0130056
0.0277399 0.0162984 0.0147367
0.0148885 0.0231193 0.0147463
0.0169801 0.0152429 0.0145336
0.0285859 0.0147658 0.0114453
0.0160048 0.0154778 0.0141651
0.0201789 0.0143648 0.0139405
0.0322158 0.0222572 0.014399
0.0215351 0.0171692 0.0155269
0.033711 0.0163335 0.0148264
0.0210146 0.0195844 0.0159106
0.0182017 0.0138342 0.0136286
0.0205825 0.0214334 0.0152989
0.030076 0.0190346 0.00719398
0.0208779 0.014079 0.0132853
0.0241264 0.0155324 0.0153739
0.0197665 0.0228818 0.00961057
0.0305682 0.0212613 0.00776527
0.0135495 0.0217851 0.0160224
0.0192747 0.0231844 0.0103358
0.0227545 0.0160204 0.0147666
0.0187778 0.0217493 0.00815804
0.0189152 0.0140118 0.0129508
0.0182358 0.0146545 0.0141993
0.0290743 0.0153697 0.0092519
0.0267589 0.0202848 0.0156171
0.021396 0.0238015 0.0145947
0.0162208 0.0149693 0.0132903
0.0200555 0.0229158 0.0136452
0.0311487 0.0226194 0.00898621
0.0221672 0.0159387 0.015831
0.0234516 0.0149793 0.0148854
0.020295 0.0223908 0.0144424
0.0227852 0.0142421 0.0149966
0.0774097 0.0197225 0.00576285
0.0240933 0.0225033 0.0154583
0.00523473 -0.00499601 0.0574616
0.0133347 0.0176371 0.0165528
0.0227919 0.0171078 0.00655212
0.0194374 0.0255661 0.0196189
0.0217736 0.0147556 0.0148257
0.032817 0.0199752 0.0156889
0.0196095 0.0148246 0.0146219
0.026648 0.0210334 0.0152943
0.0296155 0.0171695 0.00761759
0.0274954 0.0170578 0.0152181
0.0253679 0.0233265 0.0107108
0.0176424 0.0236212 0.0151235
0.0181751 0.0240849 0.0128966
0.015617 0.0237632 0.014881
0.00842114 0.0323835 0.0435188
0.0332155 0.0183164 0.0157238
0.0247608 0.0218445 0.0159529
0.0234669 0.0230362 0.0148895
0.0816322 0.0177621 0.00599233
0.0388763 0.0190285 0.00572726
0.0142796 0.0224607 0.0143421
0.0175311 0.0146256 0.0119316
0.0223195 0.0220335 0.0147937
0.0579267 0.01964 0.00580313
0.022531 0.0146244 0.0141862
0.0278971 0.0157227 0.0141795
0.0169293 0.0240925 0.014424
0.015176 0.0221707 0.014668
0.0218021 0.0238617 0.0137063
0.0176969 0.0243764 0.0137376
0.0280816 0.0152553 0.0133832

VERTICES 165 330
1 0
1 1
1 2
1 3
1 4
1 5
1 6
1 7
1 8
1 9
1 10
1 11
1 12
1 13
1 14
1 15
1 16
1 17
1 18
1 19
1 20
1 21
1 22
1 23
1 24
1 25
1 26
1 27
1 28
1 29
1 30
1 31
1 32
1 33
1 34
1 35
1 36
1 37
1 38
1 39
1 40
1 41
1 42
1 43
1 44
1 45
1 46
1 47
1 48
1 49
1 50
1 51
1 52
1 53
1 54
1 55
1 56
1 57
1 58
1 59
1 60
1 61
1 62
1 63
1 64
1 65
1 66
1 67
1 68
1 69
1 70
1 71
1 72
1 73
1 74
1 75
1 76
1 77
1 78
1 79
1 80
1 81
1 82
1 83
1 84
1 85
1 86
1 87
1 88
1 89
1 90
1 91
1 92
1 93
1 94
1 95
1 96
1 97
1 98
1 99
1 100
1 101
1 102
1 103
1 104
1 105
1 106
1 107
1 108
1 109
1 110
1 111
1 112
1 113
1 114
1 115
1 116
1 117
1 118
1 119
1 120
1 121
1 122
1 123
1 124
1 125
1 126
1 127
1 128
1 129
1 130
1 131
1 132
1 133
1 134
1 135
1 136
1 137
1 138
1 139
1 140
1 141
1 142
1 143
1 144
1 145
1 146
1 147
1 148
1 149
1 150
1 151
1 152
1 153
1 154
1 155
1 156
1 157
1 158
1 159
1 160
1 161
1 162
1 163
1 164

POINT_DATA 165
SCALARS id int 1
LOOKUP_TABLE default
1
5
6
8
9
11
14
15
16
18
19
21
22
23
26
30
32
33
38
40
41
43
44
45
47
48
50
53
54
55
59
61
62
63
66
67
76
77
78
79
80
82
83
85
88
92
93
95
99
101
102
103
104
105
106
108
109
112
113
114
116
119
123
125
127
128
129
134
135
136
137
138
141
143
144
145
150
152
155
158
159
162
164
166
172
176
177
178
180
181
187
190
191
195
197
199
204
205
209
212
213
219
221
224
225
226
227
229
230
233
234
235
242
244
249
250
252
253
255
256
257
260
265
266
267
268
270
271
275
278
281
283
284
285
288
291
294
295
296
297
298
300
301
303
304
307
312
314
315
316
317
318
320
322
325
326
328
329
331
333
334
335
337
338
340

SCALARS type int 1
LOOKUP_TABLE default
1
1
1
1
1
1
1
1
1
1
1
1
1
1
1
1
1
1
1
1
1
1
1
1
1
1
1
1
1
1
1
1
1
1
1
1
1
1
1
1
1
1
1
1
1
1
1
1
1
1
1
1
1
1
1
1
1
1
1
1
1
1
1
1
1
1
1
1
1
1
1
1
1
1
1
1
1
1
1
1
1
1
1
1
1
1
1
1
1
1
1
1
1
1
1
1
1
1
1
1
1
1
1
1
1
1
1
1
1
1
1
1
1
1
1
1
1
1
1
1
1
1
1
1
1
1
1
1
1
1
1
1
1
1
1
1
1
1
1
1
1
1
1
1
1
1
1
1
1
1
1
1
1
1
1
1
1
1
1
1
1
1
1
1
1

SCALARS radius float 1
LOOKUP_TABLE default
0.0005
0.0005
0.0005
0.0005
0.0005
0.0005
0.0005
0.0005
0.0005
0.0005
0.0005
0.0005
0.0005
0.0005
0.0005
0.0005
0.0005
0.0005
0.0005
0.0005
0.0005
0.0005
0.0005
0.0005
0.0005
0.0005
0.0005
0.0005
0.0005
0.0005
0.0005
0.0005
0.0005
0.0005
0.0005
0.0005
0.0005
0.0005
0.0005
0.0005
0.0005
0.0005
0.0005
0.0005
0.0005
0.0005
0.0005
0.0005
0.0005
0.0005
0.0005
0.0005
0.0005
0.0005
0.0005
0.0005
0.0005
0.0005
0.0005
0.0005
0.0005
0.0005
0.0005
0.0005
0.0005
0.0005
0.0005
0.0005
0.0005
0.0005
0.0005
0.0005
0.0005
0.0005
0.0005
0.0005
0.0005
0.0005
0.0005
0.0005
0.0005
0.0005
0.0005
0.0005
0.0005
0.0005
0.0005
0.0005
0.0005
0.0005
0.0005
0.0005
0.0005
0.0005
0.0005
0.0005
0.0005
0.0005
0.0005
0.0005
0.0005
0.0005
0.0005
0.0005
0.0005
0.0005
0.0005
0.0005
0.0005
0.0005
0.0005
0.0005
0.0005
0.0005
0.0005
0.0005
0.0005
0.0005
0.0005
0.0005
0.0005
0.0005
0.0005
0.0005
0.0005
0.0005
0.0005
0.0005
0.0005
0.0005
0.0005
0.0005
0.0005
0.0005
0.0005
0.0005
0.0005
0.0005
0.0005
0.0005
0.0005
0.0005
0.0005
0.0005
0.0005
0.0005
0.0005
0.0005
0.0005
0.0005
0.0005
0.0005
0.0005
0.0005
0.0005
0.0005
0.0005
0.0005
0.0005
0.0005
0.0005
0.0005
0.0005
0.0005
0.0005

SCALARS mass float 1
LOOKUP_TABLE default
1.46608e-07
1.46608e-07
1.46608e-07
1.46608e-07
1.46608e-07
1.46608e-07
1.46608e-07
1.46608e-07
1.46608e-07
1.46608e-07
1.46608e-07
1.46608e-07
1.46608e-07
1.46608e-07
1.46608e-07
1.46608e-07
1.46608e-07
1.46608e-07
1.46608e-07
1.46608e-07
1.46608e-07
1.46608e-07
1.46608e-07
1.46608e-07
1.46608e-07
1.46608e-07
1.46608e-07
1.46608e-07
1.46608e-07
1.46608e-07
1.46608e-07
1.46608e-07
1.46608e-07
1.46608e-07
1.46608e-07
1.46608e-07
1.46608e-07
1.46608e-07
1.46608e-07
1.46608e-07
1.46608e-07
1.46608e-07
1.46608e-07
1.46608e-07
1.46608e-07
1.46608e-07
1.46608e-07
1.46608e-07
1.46608e-07
1.46608e-07
1.46608e-07
1.46608e-07
1.46608e-07
1.46608e-07
1.46608e-07
1.46608e-07
1.46608e-07
1.46608e-07
1.46608e-07
1.46608e-07
1.46608e-07
1.46608e-07
1.46608e-07
1.46608e-07
1.46608e-07
1.46608e-07
1.46608e-07
1.46608e-07
1.46608e-07
1.46608e-07
1.46608e-07
1.46608e-07
1.46608e-07
1.46608e-07
1.46608e-07
1.46608e-07
1.46608e-07
1.46608e-07
1.46608e-07
1.46608e-07
1.46608e-07
1.46608e-07
1.46608e-07
1.46608e-07
1.46608e-07
1.46608e-07
1.46608e-07
1.46608e-07
1.46608e-07
1.46608e-07
1.46608e-07
1.46608e-07
1.46608e-07
1.46608e-07
1.46608e-07
1.46608e-07
1.46608e-07
1.46608e-07
1.46608e-07
1.46608e-07
1.46608e-07
1.46608e-07
1.46608e-07
1.46608e-07
1.46608e-07
1.46608e-07
1.46608e-07
1.46608e-07
1.46608e-07
1.46608e-07
1.46608e-07
1.46608e-07
1.46608e-07
1.46608e-07
1.46608e-07
1.46608e-07
1.46608e-07
1.46608e-07
1.46608e-07
1.46608e-07
1.46608e-07
1.46608e-07
1.46608e-07
1.46608e-07
1.46608e-07
1.46608e-07
1.46608e-07
1.46608e-07
1.46608e-07
1.46608e-07
1.46608e-07
1.46608e-07
1.46608e-07
1.46608e-07
1.46608e-07
1.46608e-07
1.46608e-07
1.46608e-07
1.46608e-07
1.46608e-07
1.46608e-07
1.46608e-07
1.46608e-07
1.46608e-07
1.46608e-07
1.46608e-07
1.46608e-07
1.46608e-07
1.46608e-07
1.46608e-07
1.46608e-07
1.46608e-07
1.46608e-07
1.46608e-07
1.46608e-07
1.46608e-07
1.46608e-07
1.46608e-07
1.46608e-07
1.46608e-07
1.46608e-07
1.46608e-07
1.46608e-07
1.46608e-07
1.46608e-07

VECTORS velocity float
0.00043495 0.014704 -0.0215347
-0.000743472 0.00331609 -0.0124125
0.00170393 0.015428 0.0120695
0.000180635 -0.00390129 0.0245258
0.000196478 -0.000937766 0.00182161
4.49411e-15 2.51205e-14 1.72927e-13
0.000240816 0.0088355 -0.00771701
-0.000203244 0.0133973 0.0224942
0.00211014 -0.0113161 0.0117467
0.000168777 0.0231453 -0.0110154
0.00039042 -0.0190587 -0.0154313
0.00929958 -0.0129768 0.00180468
-0.00200602 2.83644e-05 -0.00212984
3.66517e-05 -0.000148546 -0.000498001
0.00639514 -0.000679265 0.00154432
0.00858854 -0.000363812 0.00230762
-0.000487679 -0.00119678 0.00370227
-0.000135104 -0.0220818 0.0136134
8.9612e-15 -2.33997e-14 1.89549e-13
0.00661241 0.0073075 -0.00686733
-0.000752852 -0.00190586 0.000314291
0.00179954 0.012078 0.0151482
-0.000659459 -0.00354765 -0.00213667
0.00303231 -0.013904 -0.00798749
0.00321064 -0.0048522 -0.0225999
-0.00109239 0.000576546 -0.00164487
-0.00135208 0.00392081 0.00138756
0.00290849 -0.00953604 -0.0117286
0.00102473 0.00652496 0.0209035
-7.87797e-11 0.022276 -0.00937017
0.0014168 -0.0200119 0.00208592
0.000528542 0.0122251 -0.0212331
-4.63737e-15 -6.7825e-14 1.88024e-13
0.00074197 -0.0160159 0.0167922
8.70134e-06 -0.0013539 -0.000106924
0.000574139 -0.0093422 -0.0234282
0.000507126 0.000529959 6.60481e-05
0.000529181 -0.0176048 -0.0170534
0.00151541 0.000310262 -0.00179001
-0.00510584 -0.000680034 -0.00480728
-0.000297454 0.000107052 -0.00109823
0.0002937 0.00867748 -0.0211863
0.00345799 0.0125776 -0.0222856
0.000467512 -0.00742961 -0.0159101
0.0259205 -0.000366874 0.0076008
1.54052e-05 0.0272293 -0.0132732
0.000845377 0.0012167 0.00015615
0.000366084 0.00581763 0.0235941
0.000837377 -0.000965108 -0.00189254
4.32962e-05 -0.00900876 0.0231187
0.00384726 0.0136947 0.00855588
0.00203033 -0.00140723 -0.0188717
0.00628726 -0.0131113 -0.00653387
-0.0009923 -0.0191818 -0.0228394
0.00222025 0.0169028 0.00177423
0.000563533 -0.0251972 9.18316e-05
0.000705941 -0.00046643 -0.000331434
-9.69236e-317 -9.6912e-317 3.10717e-12
0.000334331 0.00476219 0.0241815
-0.00434558 -0.00201432 -0.00177431
-4.49038e-06 0.000772704 -0.00170023
0.0051508 0.00281983 -0.00325587
-1.03435e-14 1.48915e-14 1.99437e-13
0.000964783 0.00942179 0.0168577
-0.000535096 0.00166615 -0.00344887
0.000437297 0.0243263 -0.00134049
-0.000792547 0.000736495 -0.00110834
3.33613e-09 0.0287667 -0.00399325
1.53421e-14 5.18932e-14 2.1968e-13
0.00115745 -0.00270067 -0.000501173
0.00366775 0.0011018 -0.00214461
0.00281074 0.00282335 0.0010569
6.09846e-15 2.72023e-14 1.94806e-13
0.000281854 0.000309155 -0.0247016
0.0105361 -0.0159317 -0.0189572
0.000342286 -0.0149748 0.0196948
0.00254971 0.000173755 -0.0018204
-0.00538827 0.00610234 -0.00481912
0.000255136 -0.0224597 -0.00690232
0.000336195 0.000417119 -0.000352026
-0.000948848 0.00167414 -0.000780329
-1.72471e-09 0.0238876 -0.00310777
-0.00142463 0.00193506 0.00125297
0.0144445 -0.00558607 -0.00727116
0.000584695 0.0240942 0.00344244
0.00358381 0.00461949 -0.0021409
0.000291606 -0.0187316 0.0146852
0.00503122 0.00129132 -0.00143074
0.00036824 0.00418297 -0.0239476
0.00265431 -0.0158396 0.00992262
-0.00110777 -0.00131784 0.00284257
-0.000761423 -0.00111884 0.00169942
0.000354316 -0.0229685 0.00543382
0.0176313 -0.00600813 0.0035576
1.05893e-14 1.89682e-14 2.48643e-13
0.00129974 -0.000390426 -0.00133239
-1.10634e-15 -1.75114e-14 8.4019e-14
0.000519887 0.00113834 -0.0240532
8.0707e-05 -0.00113915 0.00259589
0.000717439 0.0170593 0.0125024
0.0136555 0.00344805 -0.00188932
0.00285127 0.000686783 0.000359121
0.00171987 -0.000590203 0.0198855
0.0059597 -0.00259385 6.99869e-05
-0.00113179 -0.000852051 0.00302204
0.00171518 0.0151353 -0.0150031
0.00321805 0.0116319 0.00511219
0.00135035 0.0135721 0.00945031
4.60463e-10 0.0239184 -0.00289879
0.00144762 -0.000952387 0.00170048
0.0129082 -0.00812265 0.0022329
0.00176433 -0.0201282 0.000898582
-0.000447483 -0.00200014 0.00434106
0.00105903 0.000230585 0.00132328
-7.9384e-05 -0.0111666 -0.0215677
0.000687437 -0.0199724 -0.0108375
0.0148313 0.0209081 -0.013616
0.00140099 -0.00677048 -0.0199819
0.00529392 0.0105085 0.0108797
0.000280558 -0.0111935 -0.0123486
0.000361705 -0.000632516 0.00115902
-0.00224242 0.00409757 -0.00623857
0.00129334 -0.00986325 0.0185868
0.00392813 0.0130593 -0.003597
0.000820428 0.00489544 0.000294299
0.00543358 0.00309746 0.00382112
0.00588883 0.00504815 -0.00624144
-0.000154937 -0.0145534 -0.0186156
0.0203525 -0.00877884 -0.00775573
0.00130359 0.000966231 0.000775295
0.00477524 0.00353945 -0.00670569
0.00324602 -0.000663653 0.00217327
1.22729e-15 -2.14168e-14 7.90686e-14
-0.00149773 0.00199612 -0.000194459
-0.226711 -0.183967 0.0845205
-0.00350516 0.0179313 0.00509946
2.64865e-14 -5.64314e-14 -2.04448e-13
-0.00448683 -0.0549253 -0.167123
-0.00171976 0.00316743 0.000261204
0.000806833 0.0207216 -0.00621116
-0.00216296 0.00153751 0.00080463
0.000763943 0.00869361 -0.00298999
0.000469216 -0.0200168 0.00799256
0.000550209 0.0217646 0.0122816
0.000609257 -0.00482338 -0.0231382
-0.00158488 -0.00781701 0.00174263
-0.020621 -0.00322916 0.0116398
0.00422357 0.00099566 -0.000251685
-9.72922e-317 -9.70169e-317 -1.69736e-12
0.000268148 0.0238522 0.00535983
-0.017047 0.0194029 -0.0127036
-0.000266493 0.00293274 -0.00034916
1.53367e-14 5.18528e-14 2.19689e-13
1.55006e-15 -7.41552e-15 3.66662e-14
0.152756 0.0265175 -0.0192666
-0.000534301 -0.000907683 0.00223055
0.0303341 0.0017539 -0.00326281
1.19249e-16 3.43948e-16 8.1067e-15
0.00395636 0.00345001 0.00736033
0.0025966 0.00442109 0.00972879
-4.65318e-05 -0.000205382 -0.000251319
0.00992539 0.00242641 -0.00203737
-4.04486e-05 2.20451e-05 -0.000206964
2.65384e-05 -0.000503985 -9.10583e-05
-0.000412725 0.00934837 0.0206055

VECTORS force float
2.84258e-09 -1.18055e-08 -1.05034e-08
-6.13644e-07 -2.62504e-07 1.88961e-07
2.42169e-07 -7.84505e-07 -5.29345e-07
-9.42604e-10 1.27907e-08 8.57286e-09
-4.24788e-07 4.77071e-07 -4.50478e-07
-4.43369e-22 0.0 0.0
9.24541e-07 3.02124e-07 -5.67313e-07
6.53336e-09 1.86443e-08 -3.09986e-09
3.40103e-09 1.33134e-08 2.73213e-08
1.4479e-09 -4.48685e-09 -1.62232e-08
-2.91257e-09 -1.58793e-08 6.90166e-09
1.94345e-06 -4.52943e-08 -5.55172e-07
0.0 0.0 -1.43822e-06
2.99683e-07 -3.18615e-07 4.1458e-07
0.0 0.0 -1.43822e-06
-1.46157e-07 -5.06049e-07 -7.17422e-07
2.58304e-07 -6.21688e-07 -1.2835e-06
4.74542e-09 5.13839e-09 1.53895e-08
-2.4605e-19 4.8175e-20 1.37643e-20
8.31256e-08 9.06096e-08 -2.1518e-07
6.37249e-06 -1.90812e-06 -7.52908e-07
3.44586e-07 2.6144e-07 1.95256e-07
-1.5074e-06 7.09753e-07 -3.36608e-06
-3.42897e-06 1.23122e-06 2.18736e-07
-7.4784e-06 1.35881e-05 4.87881e-05
-3.5587e-08 -5.31614e-09 1.99056e-07
-1.37057e-08 -4.42848e-08 2.96286e-09
-2.95928e-05 5.40694e-06 3.37086e-07
-1.10636e-08 2.82869e-08 2.96994e-08
7.52837e-15 -7.50665e-09 -1.73548e-08
1.67047e-08 3.91523e-08 1.85638e-08
-1.53247e-07 1.0396e-06 -1.75428e-06
5.76148e-19 -4.7328e-20 -2.75286e-21
7.28814e-09 2.04223e-08 -2.44331e-09
1.47971e-09 -5.21052e-07 1.18532e-06
4.49312e-06 6.27501e-06 8.86568e-06
8.15202e-07 4.49546e-08 -4.87897e-08
-2.9842e-07 -1.11556e-06 -8.09921e-07
9.15015e-07 -7.89392e-07 2.00711e-07
-4.26882e-05 2.11676e-05 -3.57918e-05
-3.76128e-07 2.65569e-06 -5.99781e-06
2.34834e-08 -3.35898e-08 2.54532e-08
-1.42231e-07 4.87584e-07 -9.19465e-07
-3.91239e-09 -9.11442e-09 1.27107e-08
0.0 0.0 -1.43822e-06
5.94294e-10 3.40442e-08 -4.29848e-08
-7.75732e-09 -1.94755e-07 -1.02007e-07
-2.50636e-09 1.6517e-08 3.93208e-09
8.49125e-07 7.61654e-07 -2.95579e-06
3.33755e-09 1.59316e-08 2.52737e-09
-1.56573e-07 -1.2176e-07 -6.78862e-08
-1.27925e-08 -1.93872e-08 -1.56158e-08
0.0 0.0 -1.43822e-06
-8.20423e-08 -1.14633e-07 -1.24968e-07
-7.51587e-08 3.1123e-07 -1.00696e-07
-1.06467e-08 -1.28933e-08 -9.96279e-09
2.05504e-08 1.05571e-07 7.17011e-07
0.0 0.0 0.0
-2.77497e-09 1.51472e-08 5.00347e-09
-9.45982e-08 1.67868e-06 2.10804e-06
-2.50074e-07 1.3863e-07 3.967e-07
6.22193e-08 -1.6043e-08 2.7736e-07
-7.4036e-20 2.10038e-20 -5.92923e-21
-5.93771e-08 1.44122e-07 1.77028e-07
-1.76669e-07 3.76705e-08 -1.1682e-06
-3.35202e-10 6.15041e-09 -1.4312e-08
2.79672e-06 1.27393e-06 1.53785e-06
1.01125e-14 -3.08744e-09 -2.30632e-08
-3.39898e-19 9.1109e-20 1.90582e-21
2.34321e-06 7.43759e-07 -3.133e-06
2.603e-06 -2.61312e-06 -3.95853e-06
1.46309e-07 2.04212e-07 6.08699e-08
4.56604e-21 -2.40875e-21 2.11758e-22
2.24123e-09 -1.19335e-08 -5.13286e-09
-2.34825e-06 9.42507e-07 9.35073e-07
-1.26592e-09 7.41855e-09 1.38609e-08
-5.89308e-08 -7.27992e-07 9.01916e-07
1.90008e-07 9.25197e-07 -6.1203e-07
9.13759e-09 -1.66782e-09 1.6522e-08
8.60727e-08 5.64895e-07 1.10852e-07
3.58088e-07 -1.73938e-07 9.18747e-08
8.07062e-11 -2.6914e-09 -1.86433e-08
3.75867e-07 4.79665e-07 -1.83021e-08
0.0 0.0 -1.43822e-06
-2.90235e-10 4.29224e-09 -1.89096e-08
-1.36338e-07 -1.42896e-06 1.81667e-06
8.428e-10 5.12471e-09 1.23371e-08
3.63382e-08 2.27763e-07 -1.07552e-07
-9.90578e-10 -1.24115e-08 -1.20943e-08
2.70122e-06 1.20964e-05 -8.08939e-06
-1.47532e-06 4.23965e-07 -1.86671e-07
3.16436e-07 4.93047e-07 1.3659e-07
7.97024e-10 -9.29591e-09 3.2596e-08
-1.56984e-07 5.76125e-07 -1.0042e-06
-7.42477e-21 1.2282e-20 -6.35275e-22
-1.44102e-07 4.01844e-06 -2.83238e-06
-1.04887e-21 -1.16467e-21 -2.11758e-22
4.22591e-10 -1.55146e-08 -4.27615e-09
1.92868e-07 8.7982e-08 -3.29468e-08
6.93985e-07 9.79202e-07 5.32349e-07
0.000424278 8.8569e-05 -1.68453e-05
-8.47967e-07 -8.57689e-07 -2.06976e-06
-7.96966e-09 -3.14245e-09 -7.74781e-08
-2.55148e-06 2.81244e-06 3.94051e-06
1.71028e-07 -3.27824e-07 3.76199e-07
1.90286e-07 5.58265e-07 -5.74769e-07
2.69989e-09 -1.20226e-08 -4.14999e-09
7.38193e-09 -5.35116e-08 -6.10456e-08
6.16932e-13 -2.27453e-09 -1.86979e-08
-6.85954e-07 5.17456e-07 -2.1313e-06
0.0 0.0 -1.43822e-06
-1.32546e-08 3.94447e-08 -8.03714e-09
2.90737e-07 -4.6667e-08 1.07208e-07
4.85939e-07 2.52415e-07 2.92705e-07
5.06368e-10 -1.50479e-08 -8.45685e-10
-6.29558e-08 -3.07497e-08 -1.24141e-07
-2.07568e-08 1.9159e-08 -2.59067e-08
-7.93001e-09 -2.28127e-08 -1.98451e-08
5.44459e-07 3.13539e-07 -9.19057e-08
-4.16363e-10 4.93646e-08 5.91057e-08
6.21377e-07 4.12461e-07 -5.56988e-07
4.02667e-07 -1.47218e-06 -2.39505e-06
1.61635e-08 3.30751e-08 -3.76804e-08
-4.2957e-08 1.42059e-07 -1.43882e-08
-4.89975e-07 -5.29605e-07 1.62824e-07
0.0 0.0 -1.43822e-06
7.08438e-07 -8.45158e-07 1.79796e-06
2.88095e-06 -3.53409e-06 -2.24554e-06
-7.40221e-08 -1.11886e-07 -4.43904e-07
2.38803e-07 3.05595e-07 -2.65303e-07
7.25506e-07 -2.23998e-06 2.38019e-06
-1.54974e-07 5.80721e-08 -3.58856e-08
-2.72043e-20 -1.27055e-21 0.0
2.55116e-07 -1.7636e-07 4.73165e-08
0.0 0.0 -1.43822e-06
5.42013e-08 1.11418e-07 2.65581e-08
-2.43522e-21 -3.22931e-21 6.35275e-22
-3.71326e-08 -3.55245e-07 -1.08339e-06
4.23176e-07 4.73946e-07 8.69515e-07
-5.81806e-08 1.40747e-07 -3.84587e-08
2.09687e-07 8.19097e-08 4.85465e-08
2.10938e-09 4.25102e-08 1.87774e-08
1.05053e-09 1.25463e-08 5.00491e-08
-1.97739e-06 -2.06477e-06 -3.4158e-06
-3.60983e-09 -1.72875e-08 -8.84814e-09
0.0 0.0 -1.43822e-06
0.000371665 1.66585e-05 -3.97946e-05
1.54035e-06 2.21991e-05 1.47645e-05
0.0 0.0 0.0
-1.74805e-09 7.9184e-08 7.08829e-10
-3.52844e-08 2.84432e-08 -3.62265e-08
2.98477e-07 2.41244e-07 -3.08732e-07
-1.89921e-20 8.09975e-21 -2.11758e-22
-6.55127e-22 -1.21761e-21 -2.11758e-22
0.00104625 0.00010142 0.000142294
-1.4823e-06 7.7598e-08 3.94419e-07
0.0 0.0 -1.43822e-06
-7.62793e-20 3.71503e-20 -4.23516e-22
-2.77468e-07 1.62837e-07 1.27703e-07
1.80956e-07 -8.04627e-08 -1.17059e-07
1.84086e-07 4.28075e-07 -5.81998e-07
0.000273787 3.89368e-05 -4.17423e-08
8.86293e-08 4.24956e-08 7.7871e-07
-5.34763e-09 5.1487e-09 2.20899e-07
-6.72646e-09 7.33008e-09 -2.31776e-08
