# vtk DataFile Version 3.0
LIGGGHTS particles timestep 8000000
ASCII
DATASET POLYDATA
POINTS 188 float
0.0220835 0.0209911 0.0154999
0.0225415 0.0150291 0.0133948
0.0191707 0.0237758 0.013854
0.0320823 0.023284 0.0124131
0.019123 0.0147494 0.0145198
0.0210467 0.0234415 0.0121866
0.0235938 0.0159087 0.00855586
0.0298814 0.0148509 0.0105523
0.0316345 0.0231914 0.010167
0.0235099 0.0166685 0.0152557
0.0304226 0.019281 0.0072169
0.022515 0.0104885 0.0266954
0.0207136 0.0234005 0.0112524
0.0150484 0.02167 0.0151208
0.0211141 0.0239741 0.013018
0.0236583 0.0203926 0.0168043
0.0181526 0.016247 0.0167962
0.018237 0.0148532 0.0129832
0.032613 0.0220613 0.0146127
0.154353 0.0180393 0.00580707
0.023648 0.0240229 0.0203156
0.0188984 0.0144438 0.015445
0.0201804 0.024058 0.0127927
0.0172778 0.0240356 0.0131225
0.0333 0.0192535 0.0158028
0.0293278 0.0151916 0.00971185
0.0169178 0.0234752 0.0155979
0.0229485 0.00750738 0.0339845
0.0150723 0.0208135 0.0156291
0.0339724 0.0166385 0.0150528
0.0318389 0.02336 0.0113035
0.019442 0.0225777 0.0154158
0.0238685 0.0215462 0.0161178
0.0330113 0.0206484 0.0154107
0.0299209 0.0170272 0.00766603
0.0610421 0.0187951 0.0058864
0.0272194 0.0199302 0.0157213
0.023048 0.0233361 0.0145362
0.0290414 0.0148376 0.0106334
0.0170763 0.018133 0.0158625
0.0232102 0.0149675 0.0101718
0.0206644 0.0149967 0.0148752
0.0288778 0.0147384 0.0114766
0.018954 0.0198412 0.00725153
0.0165262 0.0238051 0.0137385
0.0211663 0.0243172 0.0139858
0.0297038 0.0162564 0.00822519
0.0160972 0.0230063 0.0150993
0.0341696 0.0158557 0.0143703
0.0147699 0.0149702 0.0148306
0.0155591 0.0145851 0.014352
0.0192514 0.0232518 0.0147018
0.0255523 0.0211856 0.0167485
0.0194498 0.016164 0.0158901
0.0260171 0.0233385 0.0120837
0.0149602 0.0232575 0.0148533
0.0268074 0.0214587 0.0150095
0.0163718 0.0227015 0.0140406
0.00883356 0.0204285 0.0290917
0.0229201 0.0160296 0.0147612
0.0234202 0.0153255 0.00933619
0.0309571 0.0214939 0.00792115
0.0218877 0.0237823 0.0136561
0.0226814 0.019724 0.0159014
0.0173223 0.0147304 0.0138022
0.00197664 0.0139506 0.0435188
0.0204389 0.00350455 0.0420576
0.0187628 0.0206735 0.00751054
0.0190725 0.0241246 0.0129286
0.0164409 0.0153622 0.0140069
0.0200555 0.0238493 0.0144697
0.0910328 0.0189119 0.00581756
0.0198226 0.0233951 0.0112498
0.0206439 0.0236858 0.0136461
0.0187735 0.013854 0.0132126
0.0257627 0.0202127 0.016646
0.0176258 0.0236646 0.0139835
0.0204514 0.0144571 0.0140543
0.0236824 0.0228499 0.015137
0.0182093 0.0242474 0.0134181
0.0169233 0.0232768 0.0145972
0.0212329 0.0141874 0.0134917
0.0371755 0.0171366 0.00630956
0.0161754 0.015993 0.0147365
0.017113 0.0162676 0.014963
0.0323837 0.0228712 0.0134809
0.0171586 0.0221948 0.0156325
0.0246997 0.0198576 0.0166857
0.0200552 0.0234021 0.0121363
0.0282985 0.0155153 0.0139285
0.0205373 0.0231203 0.010007
0.0223767 0.0121206 0.0227487
0.0221883 0.0167871 0.0153239
0.0184885 0.0222549 0.0156802
0.0163684 0.0142586 0.0138616
0.0203939 0.0146993 0.0157978
0.0185909 0.023617 0.0153579
0.0156302 0.0222924 0.0145465
0.0140541 0.0154543 0.0153337
0.0274441 0.01868 0.0158173
0.019119 0.0154087 0.0152969
0.0225185 0.0224991 0.0143029
0.0206424 0.0159391 0.0157553
0.0220892 0.0157923 0.0152644
0.0169482 0.0247274 0.0192676
0.0160798 0.0223217 0.015828
0.0249461 0.0216337 0.016091
0.027946 0.0167572 0.0150791
0.027644 0.0076304 0.0388844
0.0935581 0.0183371 0.00588747
0.0145182 0.0210433 0.0164236
0.118145 0.0201427 0.00585321
0.0295021 0.0156114 0.00893464
0.0175364 0.0141158 0.0145612
0.0253783 0.0228129 0.0093273
0.0240139 0.0173452 0.00751041
0.0180977 0.0176107 0.00745971
0.0264347 0.0225832 0.0138124
0.0160402 0.0206019 0.0157296
0.0212578 0.0132508 0.0202187
0.0302227 0.018262 0.00724549
0.0166002 0.0149036 0.0131328
0.0313186 0.0226422 0.00904508
0.0151625 0.0228537 0.0138523
0.0202707 0.0140448 0.0130783
0.0159197 0.0231477 0.0132941
0.0281277 0.0160451 0.0145703
0.0195302 0.0142799 0.0137081
0.0235883 0.0151464 0.0155796
0.0223191 0.015309 0.0144154
0.0155422 0.0239472 0.0189548
0.0285446 0.0151049 0.0128841
0.0320054 0.0223194 0.036489
0.0153197 0.0198757 0.0158796
0.0170355 0.0206302 0.0157023
0.00958928 0.0171614 0.0273406
0.02254 0.0222253 0.0162527
0.0212721 0.0232622 0.0145063
0.0175668 0.0146271 0.0119293
0.0238936 0.0158573 0.0146118
0.0270249 0.0207808 0.0154608
0.0224233 0.0217873 0.014999
0.0176572 0.023773 0.0149942
0.0162839 0.0231737 0.01631
0.0151277 0.0225666 0.0155564
0.0285001 0.0174266 0.0154686
0.0249243 0.0188833 0.0167362
0.0178704 0.0139105 0.0136379
0.0220631 0.0144063 0.0140434
0.0173825 0.0143342 0.0128677
0.0160227 0.0214902 0.0152753
0.0774097 0.0197225 0.00576285
0.018591 0.0146266 0.0119333
0.0222984 0.0239696 0.0145209
0.0247425 0.0192041 0.00719009
0.0196719 0.0232074 0.0103825
0.0159606 0.0167952 0.015331
0.0278109 0.0200289 0.025445
0.0207185 0.0224108 0.0151752
0.0214048 0.0116078 0.0236592
0.0307173 0.0204768 0.00747797
0.0155187 0.0215532 0.0161367
0.0258779 0.0192243 0.0167621
0.027698 0.0176834 0.0155408
0.024764 0.0204646 0.00755032
0.0217745 0.0228554 0.0137385
0.0235816 0.00683732 0.0372082
0.0146471 0.0223651 0.0145294
0.0127061 0.020587 0.0165068
0.00842114 0.0323835 0.0435188
0.0315209 0.0211328 0.00768548
0.0232356 0.0153835 0.0140227
0.0174276 0.0155957 0.0142924
0.0816322 0.0177621 0.00599233
0.0388763 0.0190285 0.00572726
0.0251374 0.0119678 0.0269414
0.0204226 0.0233658 0.0178688
0.02434 0.0222871 0.0156377
0.0178143 0.0228019 0.0151799
0.0184433 0.0240583 0.0144636
0.0483695 0.0188487 0.00601991
0.0166477 0.0220892 0.0147789
0.0259043 0.0231968 0.0101935
0.0245026 0.020805 0.0164322
0.0203132 0.0230757 0.0132444
0.0198358 0.0244669 0.0136181
0.0157577 0.0235161 0.0143089
0.0257789 0.0233826 0.0110785

VERTICES 188 376
1 0
1 1
1 2
1 3
1 4
1 5
1 6
1 7
1 8
1 9
1 10
1 11
1 12
1 13
1 14
1 15
1 16
1 17
1 18
1 19
1 20
1 21
1 22
1 23
1 24
1 25
1 26
1 27
1 28
1 29
1 30
1 31
1 32
1 33
1 34
1 35
1 36
1 37
1 38
1 39
1 40
1 41
1 42
1 43
1 44
1 45
1 46
1 47
1 48
1 49
1 50
1 51
1 52
1 53
1 54
1 55
1 56
1 57
1 58
1 59
1 60
1 61
1 62
1 63
1 64
1 65
1 66
1 67
1 68
1 69
1 70
1 71
1 72
1 73
1 74
1 75
1 76
1 77
1 78
1 79
1 80
1 81
1 82
1 83
1 84
1 85
1 86
1 87
1 88
1 89
1 90
1 91
1 92
1 93
1 94
1 95
1 96
1 97
1 98
1 99
1 100
1 101
1 102
1 103
1 104
1 105
1 106
1 107
1 108
1 109
1 110
1 111
1 112
1 113
1 114
1 115
1 116
1 117
1 118
1 119
1 120
1 121
1 122
1 123
1 124
1 125
1 126
1 127
1 128
1 129
1 130
1 131
1 132
1 133
1 134
1 135
1 136
1 137
1 138
1 139
1 140
1 141
1 142
1 143
1 144
1 145
1 146
1 147
1 148
1 149
1 150
1 151
1 152
1 153
1 154
1 155
1 156
1 157
1 158
1 159
1 160
1 161
1 162
1 163
1 164
1 165
1 166
1 167
1 168
1 169
1 170
1 171
1 172
1 173
1 174
1 175
1 176
1 177
1 178
1 179
1 180
1 181
1 182
1 183
1 184
1 185
1 186
1 187

POINT_DATA 188
SCALARS id int 1
LOOKUP_TABLE default
1
5
6
8
9
11
13
14
15
16
18
19
21
22
23
26
30
32
33
38
40
41
43
44
45
47
48
50
52
53
54
55
58
59
61
62
63
66
67
74
75
76
77
78
79
80
82
83
85
86
88
92
93
94
95
99
101
102
103
104
105
106
108
109
111
112
113
114
116
119
120
123
124
125
127
128
129
134
135
136
137
138
141
143
144
145
146
150
152
155
158
159
162
164
166
170
171
172
176
177
178
180
181
182
183
187
190
191
195
197
199
204
205
209
212
213
219
221
224
225
226
227
229
230
233
234
235
242
244
246
249
250
252
253
255
256
257
259
260
261
265
266
267
268
270
271
272
275
278
281
283
284
285
287
288
290
291
294
295
296
297
298
300
301
303
304
307
312
314
315
316
317
318
320
322
323
325
326
327
328
329
331
333
334
335
337
338
340

SCALARS type int 1
LOOKUP_TABLE default
1
1
1
1
1
1
1
1
1
1
1
1
1
1
1
1
1
1
1
1
1
1
1
1
1
1
1
1
1
1
1
1
1
1
1
1
1
1
1
1
1
1
1
1
1
1
1
1
1
1
1
1
1
1
1
1
1
1
1
1
1
1
1
1
1
1
1
1
1
1
1
1
1
1
1
1
1
1
1
1
1
1
1
1
1
1
1
1
1
1
1
1
1
1
1
1
1
1
1
1
1
1
1
1
1
1
1
1
1
1
1
1
1
1
1
1
1
1
1
1
1
1
1
1
1
1
1
1
1
1
1
1
1
1
1
1
1
1
1
1
1
1
1
1
1
1
1
1
1
1
1
1
1
1
1
1
1
1
1
1
1
1
1
1
1
1
1
1
1
1
1
1
1
1
1
1
1
1
1
1
1
1
1
1
1
1
1
1

SCALARS radius float 1
LOOKUP_TABLE default
0.0005
0.0005
0.0005
0.0005
0.0005
0.0005
0.0005
0.0005
0.0005
0.0005
0.0005
0.0005
0.0005
0.0005
0.0005
0.0005
0.0005
0.0005
0.0005
0.0005
0.0005
0.0005
0.0005
0.0005
0.0005
0.0005
0.0005
0.0005
0.0005
0.0005
0.0005
0.0005
0.0005
0.0005
0.0005
0.0005
0.0005
0.0005
0.0005
0.0005
0.0005
0.0005
0.0005
0.0005
0.0005
0.0005
0.0005
0.0005
0.0005
0.0005
0.0005
0.0005
0.0005
0.0005
0.0005
0.0005
0.0005
0.0005
0.0005
0.0005
0.0005
0.0005
0.0005
0.0005
0.0005
0.0005
0.0005
0.0005
0.0005
0.0005
0.0005
0.0005
0.0005
0.0005
0.0005
0.0005
0.0005
0.0005
0.0005
0.0005
0.0005
0.0005
0.0005
0.0005
0.0005
0.0005
0.0005
0.0005
0.0005
0.0005
0.0005
0.0005
0.0005
0.0005
0.0005
0.0005
0.0005
0.0005
0.0005
0.0005
0.0005
0.0005
0.0005
0.0005
0.0005
0.0005
0.0005
0.0005
0.0005
0.0005
0.0005
0.0005
0.0005
0.0005
0.0005
0.0005
0.0005
0.0005
0.0005
0.0005
0.0005
0.0005
0.0005
0.0005
0.0005
0.0005
0.0005
0.0005
0.0005
0.0005
0.0005
0.0005
0.0005
0.0005
0.0005
0.0005
0.0005
0.0005
0.0005
0.0005
0.0005
0.0005
0.0005
0.0005
0.0005
0.0005
0.0005
0.0005
0.0005
0.0005
0.0005
0.0005
0.0005
0.0005
0.0005
0.0005
0.0005
0.0005
0.0005
0.0005
0.0005
0.0005
0.0005
0.0005
0.0005
0.0005
0.0005
0.0005
0.0005
0.0005
0.0005
0.0005
0.0005
0.0005
0.0005
0.0005
0.0005
0.0005
0.0005
0.0005
0.0005
0.0005
0.0005
0.0005
0.0005
0.0005
0.0005
0.0005

SCALARS mass float 1
LOOKUP_TABLE default
1.46608e-07
1.46608e-07
1.46608e-07
1.46608e-07
1.46608e-07
1.46608e-07
1.46608e-07
1.46608e-07
1.46608e-07
1.46608e-07
1.46608e-07
1.46608e-07
1.46608e-07
1.46608e-07
1.46608e-07
1.46608e-07
1.46608e-07
1.46608e-07
1.46608e-07
1.46608e-07
1.46608e-07
1.46608e-07
1.46608e-07
1.46608e-07
1.46608e-07
1.46608e-07
1.46608e-07
1.46608e-07
1.46608e-07
1.46608e-07
1.46608e-07
1.46608e-07
1.46608e-07
1.46608e-07
1.46608e-07
1.46608e-07
1.46608e-07
1.46608e-07
1.46608e-07
1.46608e-07
1.46608e-07
1.46608e-07
1.46608e-07
1.46608e-07
1.46608e-07
1.46608e-07
1.46608e-07
1.46608e-07
1.46608e-07
1.46608e-07
1.46608e-07
1.46608e-07
1.46608e-07
1.46608e-07
1.46608e-07
1.46608e-07
1.46608e-07
1.46608e-07
1.46608e-07
1.46608e-07
1.46608e-07
1.46608e-07
1.46608e-07
1.46608e-07
1.46608e-07
1.46608e-07
1.46608e-07
1.46608e-07
1.46608e-07
1.46608e-07
1.46608e-07
1.46608e-07
1.46608e-07
1.46608e-07
1.46608e-07
1.46608e-07
1.46608e-07
1.46608e-07
1.46608e-07
1.46608e-07
1.46608e-07
1.46608e-07
1.46608e-07
1.46608e-07
1.46608e-07
1.46608e-07
1.46608e-07
1.46608e-07
1.46608e-07
1.46608e-07
1.46608e-07
1.46608e-07
1.46608e-07
1.46608e-07
1.46608e-07
1.46608e-07
1.46608e-07
1.46608e-07
1.46608e-07
1.46608e-07
1.46608e-07
1.46608e-07
1.46608e-07
1.46608e-07
1.46608e-07
1.46608e-07
1.46608e-07
1.46608e-07
1.46608e-07
1.46608e-07
1.46608e-07
1.46608e-07
1.46608e-07
1.46608e-07
1.46608e-07
1.46608e-07
1.46608e-07
1.46608e-07
1.46608e-07
1.46608e-07
1.46608e-07
1.46608e-07
1.46608e-07
1.46608e-07
1.46608e-07
1.46608e-07
1.46608e-07
1.46608e-07
1.46608e-07
1.46608e-07
1.46608e-07
1.46608e-07
1.46608e-07
1.46608e-07
1.46608e-07
1.46608e-07
1.46608e-07
1.46608e-07
1.46608e-07
1.46608e-07
1.46608e-07
1.46608e-07
1.46608e-07
1.46608e-07
1.46608e-07
1.46608e-07
1.46608e-07
1.46608e-07
1.46608e-07
1.46608e-07
1.46608e-07
1.46608e-07
1.46608e-07
1.46608e-07
1.46608e-07
1.46608e-07
1.46608e-07
1.46608e-07
1.46608e-07
1.46608e-07
1.46608e-07
1.46608e-07
1.46608e-07
1.46608e-07
1.46608e-07
1.46608e-07
1.46608e-07
1.46608e-07
1.46608e-07
1.46608e-07
1.46608e-07
1.46608e-07
1.46608e-07
1.46608e-07
1.46608e-07
1.46608e-07
1.46608e-07
1.46608e-07
1.46608e-07
1.46608e-07
1.46608e-07
1.46608e-07
1.46608e-07
1.46608e-07
1.46608e-07
1.46608e-07
1.46608e-07
1.46608e-07

VECTORS velocity float
-0.0384772 0.0249329 -0.00513912
0.00534227 5.49608e-05 0.00170688
-0.000238488 0.00215712 0.000395658
-0.000304647 0.00653065 -0.023365
0.0015122 -0.000533028 0.00538402
0.00203374 0.00372285 -0.010594
0.00152574 -0.0129368 0.0124574
0.000453029 -0.00632738 0.022994
0.000466026 -0.00736521 -0.0230477
0.00704058 0.00260423 0.00308998
0.000105731 -0.0263528 -0.0025508
-0.0661509 0.0380126 -0.136245
0.00141702 -0.000532231 -0.0118482
0.0149801 0.00502022 -0.033501
-0.00337584 -0.00799471 -0.000723337
-0.0389477 -0.0119876 -0.0820405
-0.031732 0.0975914 -0.248
0.00749057 -0.00892433 -0.0503192
0.000247436 0.0214648 -0.016703
8.82726e-15 -2.33999e-14 1.89556e-13
-0.0221623 -0.0438784 -0.106118
-0.00399558 -0.00187995 0.00375582
-0.00284281 -0.00312958 0.000478153
8.74376e-05 0.000276168 -0.000186889
0.00473768 0.00434152 -0.00146777
0.00295892 -0.00455768 0.00825339
0.000910622 -0.000103584 0.000306903
-0.0380236 -0.0159782 -0.0610849
0.0171051 0.00991789 -0.0477121
0.000623615 0.017788 0.0107474
0.000202581 -0.000231013 -0.0256539
0.00710552 0.00452517 -0.000138315
-0.00626858 0.00346493 -0.00290309
0.000200818 0.022964 -0.00969023
0.00201187 -0.0190856 0.00849357
6.07826e-15 2.72136e-14 1.94805e-13
0.000516684 0.0230177 -0.00580962
0.000413406 0.00313577 -0.00527733
0.000128815 -0.00640294 0.0237463
-3.62791e-09 0.0237202 0.00476947
0.000568092 -0.00670615 0.0234507
-0.0116548 0.00667383 0.0439951
0.000968095 -0.00173072 0.0164554
0.000717965 -0.021195 -0.00396808
0.00189062 0.00248421 0.00242439
0.00687632 -0.00319573 0.00719019
0.000124904 -0.0179378 0.0130463
0.00270876 0.0039466 0.00308389
0.0020812 0.0130045 0.0158391
0.00489321 -0.00219544 -0.00352427
0.00571711 -0.00379638 -0.000889805
0.00126551 0.000726931 -0.00204944
-4.30194e-05 -0.000751265 -0.000748217
-0.00460629 -0.0365488 -0.0286559
0.000466218 0.00353831 -0.0244678
0.0018765 0.00359857 0.00229709
0.00119855 0.0165334 -0.01331
0.00426721 0.00132128 -0.00372059
0.0674529 -0.0803894 -0.215616
0.00305504 0.00462557 0.00531892
0.000465943 -0.0126786 0.0207
-0.000428065 -0.0172127 -0.0120643
0.00991731 -7.43993e-07 0.000658435
5.13997e-10 0.0238545 -0.00382302
0.007599 0.00351451 0.00659589
-9.69236e-317 -9.6912e-317 3.10717e-12
-0.184285 -0.0815175 0.108106
0.000494982 -0.0226603 -0.00914171
0.00030558 0.000503194 0.00171036
0.00584314 0.00529848 0.0105186
0.0172796 -0.0134553 -0.0439716
-1.02287e-14 1.49152e-14 1.99442e-13
0.00106011 -0.00280251 -0.0203503
0.00249013 -0.00560297 0.0326928
-0.000802799 0.000488191 0.000133054
-0.00170012 -0.000220845 -0.00233093
-0.00168186 0.00140442 0.00115888
-0.00157324 -0.00398148 0.0104005
-0.000818627 0.00143705 0.00160703
-0.000363452 0.000128015 0.00085035
0.00347273 -0.000880435 -0.00113942
0.00100884 0.00142161 0.00472698
-9.05352e-16 5.64858e-15 1.50131e-14
0.00328938 0.0081128 0.00918343
0.00704159 0.0039551 0.00266921
0.000269292 0.0121685 -0.0220612
0.00901841 -0.0101784 -0.00593532
-0.0016825 0.000168552 -0.000465522
0.00433216 0.00552406 -0.0211174
0.000218244 0.0116021 0.0221471
0.00124137 0.00274625 0.0013161
-0.0472253 0.0389956 -0.162106
0.00110558 0.00403169 0.00294111
0.0199046 0.00580671 -0.00118019
0.00518335 -0.00596826 0.00146796
-0.0770376 -0.0263042 0.0778166
0.000655032 0.00369071 -0.0026712
0.00449831 0.00368699 -0.000739358
0.00373526 -0.00523052 -0.00223858
0.00106894 0.0215458 0.00225339
0.000262192 -0.00351333 -0.00203393
0.00934421 0.00511098 -0.00503967
-0.00352371 -0.0508566 -0.0353817
0.00356042 0.00624039 0.00664203
0.00964231 -0.123756 -0.249498
0.00546777 0.00371218 0.00257055
-0.000141036 -0.000581128 -0.000583297
0.000360137 0.0209322 0.0135405
-0.0420734 -0.0529384 0.112414
1.06319e-14 1.89469e-14 2.48643e-13
-0.0159671 -0.0532046 -0.0943435
-1.1127e-15 -1.7512e-14 8.40188e-14
0.0019388 -0.0100353 0.0139566
0.0108194 0.00376303 0.00753938
0.00395589 -0.00419484 -0.00816961
0.00112658 -0.0254812 0.00845945
0.00122749 -0.0199377 0.00931298
9.64604e-05 0.0157348 -0.0207508
0.00504518 0.00914295 -0.005682
-0.0401648 0.0447127 -0.251423
0.000272567 -0.0232629 0.00496207
0.00328332 0.00487145 0.0104335
0.000893868 -0.0131143 -0.017532
0.00587428 0.00250396 -0.00452374
-0.000235825 -0.000620749 0.00231623
0.00625897 0.00258353 -0.00417131
0.000434472 0.0175803 0.0155379
-0.00143102 0.000857265 0.00476944
0.00227864 -0.038351 -0.0309468
0.00419493 0.00375236 0.00614414
0.0461762 -0.060249 -0.0787724
-0.00014789 0.00936812 0.0222757
0.0345352 0.0120135 0.0847235
0.00379494 0.00713712 -0.00248658
0.00255608 0.0164163 -0.00250642
0.140771 0.0620185 -0.337561
-0.461813 -0.285884 0.0746437
-0.00157653 -0.0137153 0.00247922
-5.61719e-05 3.59465e-05 0.000109602
0.00191575 0.000594006 0.00285032
0.00159808 0.016866 -0.00672216
0.00202183 0.00770266 -0.00592036
0.00196292 -0.000281211 0.000194584
0.00220387 0.00406761 0.00212138
0.00214767 0.00347038 0.00171201
0.00013837 0.02294 0.0115069
-0.00257423 -0.00299564 -0.00138871
-0.000844526 -0.000274896 -0.000346129
0.00615384 0.00415949 -0.00107717
-0.00585848 -0.00867608 -0.00805047
0.00543774 0.00540171 -0.00191257
1.20425e-15 -2.14173e-14 7.90688e-14
0.00287975 -0.00352555 0.0134798
0.00467408 0.00196528 -0.00156404
-0.000109738 -0.00673367 -0.0012115
0.00196334 -0.00505719 -0.0169463
0.0053322 0.000525513 0.00137819
0.0120587 -0.0505277 -0.00220063
0.0499028 -0.0948945 0.0284827
-0.0738176 -0.011192 -0.18269
0.00130725 -0.0214923 -0.00627446
0.00061323 0.00945444 0.000367797
-0.000958396 -0.00382668 -0.00219106
0.000543891 0.0241318 0.0106558
-0.00229193 -0.0217775 -0.0127732
0.00891972 0.00332811 -0.0064192
-0.0388164 0.00156984 -0.0395382
0.00415661 0.00673746 -0.00380535
0.0129495 0.0202771 -0.00569872
-9.72922e-317 -9.70169e-317 -1.69736e-12
0.000732063 -0.00980661 -0.00557496
0.00375335 0.00172519 0.00486261
0.0105342 0.00429729 0.00535168
1.53128e-14 5.18566e-14 2.1969e-13
1.55039e-15 -7.41565e-15 3.66661e-14
-0.0589323 -0.0131618 -0.106972
0.0385396 -0.0645307 0.331397
-0.000286593 -0.000301233 -0.000901591
0.00969726 -0.0022002 -0.00348291
0.000309033 0.000230145 0.000200843
-8.57717e-15 1.85441e-14 1.9262e-13
0.00543657 0.00138483 -0.00376499
-9.65943e-05 -0.00725733 -0.0226774
-0.00137787 0.000228071 -0.000598121
0.00371438 0.0100363 -0.0258522
-0.000919409 -5.40973e-05 0.000405191
0.00197407 0.00285534 0.00255474
0.00116476 -0.00172191 -0.0205392

VECTORS force float
0.0 0.0 -1.43822e-06
1.5893e-07 -3.68169e-07 -6.86452e-07
-7.93581e-06 2.80485e-06 1.47962e-06
-2.7455e-08 7.50004e-09 3.57757e-08
5.44122e-08 -8.41018e-08 4.24873e-07
-1.82149e-06 9.9083e-06 -3.10092e-05
3.38613e-09 5.38363e-08 -3.59577e-08
1.74812e-08 3.21163e-08 -2.86205e-08
1.26112e-09 -1.47855e-08 -1.10771e-09
-1.5233e-07 -8.5971e-08 -2.8276e-08
-1.60786e-09 -1.00997e-08 1.42948e-08
-1.15799e-07 4.10613e-07 -9.26991e-07
3.36159e-06 -1.32535e-07 -2.12859e-06
5.30053e-05 -1.6735e-05 -0.000249832
4.89064e-05 -7.35987e-05 -0.000106303
0.0 0.0 -1.43822e-06
0.0 0.0 -1.43822e-06
0.0 0.0 -1.43822e-06
2.80531e-09 -8.91559e-09 -1.40382e-08
6.6017e-19 3.03926e-19 8.25857e-21
0.0 0.0 -1.43822e-06
-1.59508e-07 -2.20289e-07 3.51659e-07
1.96478e-05 -1.03915e-05 1.5141e-05
-2.01035e-08 2.32206e-08 -2.08027e-08
1.37442e-08 5.57801e-08 2.22506e-08
5.13758e-08 2.22237e-08 2.5925e-09
1.10778e-06 -4.8089e-07 3.83656e-07
0.0 0.0 -1.43822e-06
-2.1454e-05 -0.000245728 -3.97868e-05
-6.05478e-09 3.91776e-08 -1.34341e-09
-1.02722e-09 -1.28789e-08 -7.60235e-09
-1.83815e-07 1.02615e-06 -1.12305e-06
1.28017e-07 1.10599e-06 -5.90561e-07
-8.58691e-10 -3.30535e-10 -1.62e-08
-1.67184e-08 5.10719e-09 6.50784e-08
-1.79584e-19 4.60045e-20 -6.35275e-22
7.61891e-09 1.22705e-07 -4.26294e-08
2.95702e-05 -3.09372e-05 5.07157e-05
1.02879e-09 1.87925e-08 -6.26079e-09
-4.41248e-16 4.26952e-09 -2.12341e-08
-7.61258e-09 4.82316e-09 1.69403e-08
0.0 0.0 -1.43822e-06
3.97877e-09 1.86898e-08 -1.09001e-08
4.65996e-09 -1.06065e-07 2.37893e-08
1.29245e-07 9.48372e-07 2.84913e-07
6.08011e-05 -1.38367e-06 4.57294e-05
1.87697e-07 -6.88165e-08 9.09021e-08
2.34352e-07 -2.77991e-07 -3.03162e-07
-3.64294e-08 4.74856e-08 5.47159e-08
8.0825e-09 -1.93329e-08 3.36067e-08
1.04504e-08 -2.34778e-08 2.86194e-08
-4.85727e-07 -8.93735e-08 1.47302e-06
-4.89266e-07 -7.88597e-08 -8.32129e-07
3.27228e-08 -2.37644e-07 -3.55401e-08
-5.12759e-09 -9.23647e-09 -1.88119e-08
1.17209e-07 2.93365e-06 5.69751e-07
-2.90942e-09 -1.66838e-09 -1.54892e-08
7.23565e-07 1.13235e-06 -1.60535e-06
0.0 0.0 -1.43822e-06
-5.34719e-07 3.72757e-08 2.17468e-07
-3.71904e-09 -5.76602e-09 2.80625e-08
-2.1142e-07 -5.90027e-07 -2.81146e-07
3.29024e-05 2.26099e-05 -9.96541e-06
3.32446e-15 -3.16614e-09 -1.86339e-08
6.98748e-07 -4.92185e-07 -5.73147e-07
0.0 0.0 0.0
0.0 0.0 -1.43822e-06
-5.5727e-09 -2.35036e-08 1.52413e-09
-1.20061e-06 -5.52247e-07 1.04494e-06
1.80526e-07 1.02905e-07 -9.53556e-07
0.0 0.0 -1.43822e-06
-2.66021e-21 -6.21907e-20 4.02341e-21
3.02264e-06 -3.32712e-06 1.11787e-06
0.000160372 4.81269e-05 -4.75652e-05
-1.30309e-06 1.85296e-06 7.66988e-06
4.68336e-07 2.85728e-06 2.65972e-06
-2.42533e-07 1.84922e-07 -5.66151e-07
2.37389e-06 8.82444e-07 -5.79076e-07
-3.01247e-06 5.42556e-06 -1.72272e-06
6.4984e-07 1.67878e-07 2.2704e-07
-7.84026e-07 1.8056e-06 -3.45806e-06
-1.46957e-07 -2.83832e-06 1.70702e-06
0.0 0.0 0.0
1.90647e-07 1.0801e-07 -1.32771e-06
-2.16264e-07 -3.53112e-07 -7.73896e-08
-6.17299e-10 -1.12726e-08 -1.13459e-08
0.0 0.0 -1.43822e-06
5.38742e-08 8.93301e-07 -1.40332e-07
1.21143e-05 -1.02163e-06 -2.52007e-06
-1.11168e-08 1.18407e-08 -1.24822e-09
-6.41529e-07 3.16159e-07 -1.04233e-06
-1.22598e-07 3.44295e-07 -1.0726e-06
-2.5108e-08 -6.98643e-08 -2.15858e-08
-2.49492e-07 6.6886e-07 -1.09422e-06
3.27956e-07 1.01059e-06 -3.14898e-07
0.0 0.0 -1.43822e-06
0.0 0.0 -1.43822e-06
1.46304e-06 9.23775e-06 1.88495e-06
-6.6757e-09 -2.42799e-08 2.92251e-08
1.10498e-09 -2.10213e-09 -1.67221e-08
-1.33956e-08 -2.23837e-07 -6.42182e-07
-3.22551e-06 -9.99335e-06 6.87334e-07
-2.12849e-08 -2.57186e-07 -1.14757e-08
-4.10501e-07 6.04201e-08 6.11613e-07
0.0 0.0 -1.43822e-06
-2.0005e-07 -4.28908e-07 -1.34348e-06
-1.6945e-07 7.37473e-07 5.19605e-07
-7.63523e-09 3.19723e-08 -1.00478e-08
0.0 0.0 -1.43822e-06
-1.82641e-21 1.21893e-20 -8.47033e-22
-0.00041896 5.25097e-05 0.000719209
1.56867e-20 2.11758e-22 2.11758e-22
-5.98556e-07 -7.10417e-08 3.49123e-07
-1.72801e-07 9.52889e-08 2.48979e-07
7.20212e-09 6.31621e-08 6.40148e-08
3.32725e-09 -3.46269e-09 1.6739e-08
-5.19546e-08 -2.15961e-07 1.23164e-07
-4.26973e-09 -9.91302e-09 -1.11132e-08
1.75385e-05 8.2059e-06 -0.000100828
0.0 0.0 -1.43822e-06
-2.19959e-09 -8.08458e-09 1.64873e-08
-5.83737e-07 7.16385e-07 1.29339e-06
-1.08533e-08 -2.57313e-08 -1.05334e-08
-8.28069e-07 3.4587e-06 -3.37418e-06
-6.30545e-07 -1.16035e-06 2.20284e-06
1.72682e-07 1.7426e-07 -4.63578e-07
-7.05472e-09 -1.5916e-10 -1.04915e-08
3.45142e-06 -1.54165e-06 6.84831e-06
0.0 0.0 -1.43822e-06
-5.66568e-08 1.25301e-07 1.84715e-07
0.0 0.0 -1.43822e-06
9.14052e-09 3.80927e-08 2.25773e-08
-4.07074e-07 -3.29964e-08 -9.62164e-07
-1.41406e-08 4.85276e-08 -1.57391e-06
7.49489e-06 -8.95752e-06 2.57113e-05
7.92307e-07 -2.48625e-08 -5.1352e-07
0.0 0.0 -1.43822e-06
0.0 0.0 -1.43822e-06
3.90961e-07 6.57336e-08 1.43296e-06
-1.14964e-07 2.76874e-07 9.46544e-08
2.07586e-09 -9.38414e-09 3.56118e-09
-7.51161e-08 1.10321e-06 -9.15492e-07
2.29312e-06 6.13633e-07 -4.7059e-06
-1.38001e-06 -1.8881e-06 -7.08984e-07
-4.63979e-07 -7.24058e-06 1.85491e-06
-4.99699e-08 -8.05058e-08 -4.70814e-08
6.00898e-09 6.37431e-07 8.84136e-08
7.42695e-07 1.05216e-07 -1.21832e-06
-3.45363e-07 3.17837e-07 -8.81123e-07
0.0 0.0 -1.43822e-06
2.53999e-05 -3.12325e-07 -2.17873e-05
-6.409e-21 4.02341e-21 1.05879e-21
0.0 0.0 -1.43822e-06
4.75259e-05 -6.99717e-06 -8.36812e-06
1.41658e-08 5.99335e-07 -1.80802e-07
-1.94626e-06 1.02147e-05 1.81408e-05
1.24967e-08 -6.35e-08 -9.03528e-09
-3.62253e-07 -6.25211e-08 -1.0673e-06
0.0 0.0 -1.43822e-06
0.0 0.0 -1.43822e-06
-2.22998e-08 -4.5876e-08 -1.07204e-08
2.08912e-06 -1.33236e-06 -1.49681e-06
2.4013e-08 6.67335e-07 9.4457e-09
3.4416e-08 -1.69778e-07 -8.63199e-08
9.21756e-10 -2.70749e-08 3.00224e-08
-4.37332e-05 2.09911e-05 -4.14871e-05
0.0 0.0 -1.43822e-06
-2.84774e-06 2.75438e-05 -1.27457e-05
7.19151e-09 3.04905e-10 -9.57216e-09
0.0 0.0 0.0
-1.61552e-07 3.02038e-08 -4.59553e-08
-1.67354e-07 -1.42324e-07 -1.50851e-07
-1.80339e-07 -3.55358e-07 -7.65097e-07
-2.16258e-20 9.1056e-21 -6.35275e-22
-1.05681e-20 -3.28225e-21 -2.11758e-22
0.0 0.0 -1.43822e-06
0.0 0.0 -1.43822e-06
-6.86239e-07 4.20747e-07 -2.08434e-07
0.0 0.0 -1.43822e-06
4.52234e-06 5.71626e-06 -3.93657e-06
3.62676e-19 1.04106e-19 6.98802e-21
1.32231e-06 9.12284e-06 -3.47146e-06
-1.60332e-07 5.37747e-09 -7.81167e-09
-1.84404e-07 -4.74738e-08 4.24288e-08
1.41448e-05 1.79847e-06 2.16356e-05
-8.64819e-06 -8.39585e-06 -9.78264e-07
-4.57139e-07 -3.59584e-07 -1.37672e-06
9.54235e-08 -1.46938e-08 1.24238e-07
