# vtk DataFile Version 3.0
LIGGGHTS particles timestep 17000000
ASCII
DATASET POLYDATA
POINTS 123 float
0.0338399 0.0152241 0.00955331
0.043913 0.018786 0.0157948
0.0202068 0.0140115 0.0131244
0.0650666 0.0182067 0.00579668
0.0423257 0.0234014 0.0112268
0.043161 0.0219173 0.014685
0.0277689 0.0151144 0.00978205
0.0419303 0.0228567 0.00955696
0.032392 0.0168625 0.0152193
0.0302198 0.0233353 0.0107421
0.0569039 0.0138513 0.00961414
0.0591852 0.0175257 0.00598648
0.0220575 0.014883 0.0130859
0.0877973 0.0183264 0.00578476
0.0443781 0.0169956 0.0152274
0.154353 0.0180393 0.00580707
0.0218872 0.0153412 0.0139594
0.0275295 0.0148325 0.0107046
0.0453908 0.0181374 0.00608985
0.0408326 0.0189163 0.00715661
0.0215027 0.0148117 0.0108801
0.0346867 0.0182084 0.0072919
0.0457337 0.0151877 0.01007
0.0434471 0.0208807 0.0154276
0.0197269 0.019993 0.0158459
0.0446104 0.015945 0.0144822
0.0415472 0.0218418 0.00821882
0.0810497 0.0189612 0.0057499
0.0379222 0.0187891 0.0157274
0.0405657 0.0176315 0.00742316
0.0400976 0.0160589 0.00848314
0.0305287 0.0233083 0.0122455
0.0412825 0.0207583 0.00754091
0.0252294 0.0211969 0.0153597
0.0460405 0.0158531 0.00870764
0.0234967 0.023009 0.0149961
0.0326353 0.0158649 0.014433
0.0367848 0.0230251 0.0131916
0.0258703 0.0198846 0.0157458
0.0376061 0.0202975 0.0156171
0.0865114 0.0176774 0.00596015
0.0424719 0.0233218 0.0120276
0.032062 0.0181056 0.0156947
0.00197664 0.0139506 0.0435188
0.0195995 0.0239565 0.0126783
0.0210787 0.014716 0.0132064
0.0910328 0.0189119 0.00581756
0.021215 0.0147454 0.0121731
0.0185899 0.0239263 0.0126237
0.035448 0.0216166 0.00805606
0.0796023 0.0196488 0.00578548
0.0204721 0.016575 0.0153588
0.0225169 0.0158208 0.0145716
0.020551 0.023407 0.012452
0.0679057 0.0197258 0.00574271
0.0336476 0.0149867 0.0103025
0.0255224 0.0205614 0.0156999
0.044112 0.0179724 0.0156746
0.0395669 0.0148899 0.0105446
0.0288887 0.0192552 0.00715787
0.0379095 0.0187726 0.00571644
0.027197 0.0148532 0.0122821
0.0284894 0.0173245 0.00755258
0.038302 0.017259 0.0153779
0.0332475 0.0148072 0.0120477
0.0317087 0.0198682 0.0156954
0.0208217 0.0153268 0.0142863
0.0133546 0.00211829 0.0435188
0.0390182 0.0150539 0.0130995
0.0935581 0.0183371 0.00588747
0.0197833 0.0234872 0.0118146
0.118145 0.0201427 0.00585321
0.0410496 0.0199064 0.00727304
0.0300041 0.0207044 0.00754564
0.0357298 0.0224378 0.00890115
0.0370916 0.0219476 0.0145478
0.0214996 0.0139842 0.0142126
0.0417179 0.0224291 0.00879566
0.0221658 0.0162201 0.00822633
0.042914 0.0227434 0.0137701
0.025822 0.0190288 0.0158874
0.0182078 0.0233051 0.0108685
0.0392454 0.0148328 0.0120744
0.0287156 0.0183109 0.00726185
0.0281984 0.0163154 0.00816256
0.0231193 0.0200425 0.00737557
0.0397924 0.0151661 0.00965621
0.0298778 0.022836 0.00934222
0.00841998 0.0220148 0.0065957
0.0234287 0.0212845 0.00802677
0.0238253 0.0227547 0.00930164
0.0205859 0.0231518 0.0134237
0.0377487 0.0197076 0.0157345
0.0351939 0.0206538 0.00765595
0.0187846 0.0234698 0.0117562
0.0403105 0.0167181 0.00789489
0.0291618 0.0204044 0.00740619
0.0780892 0.0197976 0.00577259
0.0267827 0.0155089 0.0139227
0.0778211 0.0188379 0.00591496
0.0227919 0.0171078 0.00655212
0.0421461 0.0231983 0.0103993
0.0296245 0.0221374 0.00846351
0.0340172 0.0157496 0.00878455
0.0385757 0.0161231 0.0145681
0.0355895 0.0220667 0.00840695
0.032914 0.0152606 0.0134593
0.0219902 0.0237577 0.013795
0.0211845 0.0239837 0.0132477
0.0279932 0.0156426 0.00885863
0.00842114 0.0323835 0.0435188
0.0426841 0.0231319 0.012922
0.031403 0.0210839 0.015252
0.0816963 0.0177498 0.00599076
0.0388831 0.0190336 0.00572799
0.0228586 0.0151434 0.0136251
0.0180383 0.0140687 0.0130992
0.0311083 0.0220808 0.0145694
0.0623783 0.0182526 0.00592036
0.062856 0.0173563 0.00601538
0.0359363 0.0228923 0.00960219
0.0260409 0.0208363 0.0153735
0.0364553 0.0233683 0.0119057

VERTICES 123 246
1 0
1 1
1 2
1 3
1 4
1 5
1 6
1 7
1 8
1 9
1 10
1 11
1 12
1 13
1 14
1 15
1 16
1 17
1 18
1 19
1 20
1 21
1 22
1 23
1 24
1 25
1 26
1 27
1 28
1 29
1 30
1 31
1 32
1 33
1 34
1 35
1 36
1 37
1 38
1 39
1 40
1 41
1 42
1 43
1 44
1 45
1 46
1 47
1 48
1 49
1 50
1 51
1 52
1 53
1 54
1 55
1 56
1 57
1 58
1 59
1 60
1 61
1 62
1 63
1 64
1 65
1 66
1 67
1 68
1 69
1 70
1 71
1 72
1 73
1 74
1 75
1 76
1 77
1 78
1 79
1 80
1 81
1 82
1 83
1 84
1 85
1 86
1 87
1 88
1 89
1 90
1 91
1 92
1 93
1 94
1 95
1 96
1 97
1 98
1 99
1 100
1 101
1 102
1 103
1 104
1 105
1 106
1 107
1 108
1 109
1 110
1 111
1 112
1 113
1 114
1 115
1 116
1 117
1 118
1 119
1 120
1 121
1 122

POINT_DATA 123
SCALARS id int 1
LOOKUP_TABLE default
1
8
9
11
14
15
16
18
19
21
22
23
26
32
33
38
40
41
45
47
48
50
53
54
55
59
61
62
63
67
77
80
82
83
85
88
93
95
99
101
102
106
108
112
116
119
123
125
127
128
135
136
137
138
141
143
144
145
155
158
162
164
172
177
180
181
187
190
191
197
199
204
205
209
212
221
225
226
227
229
230
234
235
242
244
249
250
253
255
256
257
260
265
266
270
271
275
278
283
284
294
297
298
300
301
303
304
307
312
314
315
316
318
320
322
325
326
328
329
331
333
338
340

SCALARS type int 1
LOOKUP_TABLE default
1
1
1
1
1
1
1
1
1
1
1
1
1
1
1
1
1
1
1
1
1
1
1
1
1
1
1
1
1
1
1
1
1
1
1
1
1
1
1
1
1
1
1
1
1
1
1
1
1
1
1
1
1
1
1
1
1
1
1
1
1
1
1
1
1
1
1
1
1
1
1
1
1
1
1
1
1
1
1
1
1
1
1
1
1
1
1
1
1
1
1
1
1
1
1
1
1
1
1
1
1
1
1
1
1
1
1
1
1
1
1
1
1
1
1
1
1
1
1
1
1
1
1

SCALARS radius float 1
LOOKUP_TABLE default
0.0005
0.0005
0.0005
0.0005
0.0005
0.0005
0.0005
0.0005
0.0005
0.0005
0.0005
0.0005
0.0005
0.0005
0.0005
0.0005
0.0005
0.0005
0.0005
0.0005
0.0005
0.0005
0.0005
0.0005
0.0005
0.0005
0.0005
0.0005
0.0005
0.0005
0.0005
0.0005
0.0005
0.0005
0.0005
0.0005
0.0005
0.0005
0.0005
0.0005
0.0005
0.0005
0.0005
0.0005
0.0005
0.0005
0.0005
0.0005
0.0005
0.0005
0.0005
0.0005
0.0005
0.0005
0.0005
0.0005
0.0005
0.0005
0.0005
0.0005
0.0005
0.0005
0.0005
0.0005
0.0005
0.0005
0.0005
0.0005
0.0005
0.0005
0.0005
0.0005
0.0005
0.0005
0.0005
0.0005
0.0005
0.0005
0.0005
0.0005
0.0005
0.0005
0.0005
0.0005
0.0005
0.0005
0.0005
0.0005
0.0005
0.0005
0.0005
0.0005
0.0005
0.0005
0.0005
0.0005
0.0005
0.0005
0.0005
0.0005
0.0005
0.0005
0.0005
0.0005
0.0005
0.0005
0.0005
0.0005
0.0005
0.0005
0.0005
0.0005
0.0005
0.0005
0.0005
0.0005
0.0005
0.0005
0.0005
0.0005
0.0005
0.0005
0.0005

SCALARS mass float 1
LOOKUP_TABLE default
1.46608e-07
1.46608e-07
1.46608e-07
1.46608e-07
1.46608e-07
1.46608e-07
1.46608e-07
1.46608e-07
1.46608e-07
1.46608e-07
1.46608e-07
1.46608e-07
1.46608e-07
1.46608e-07
1.46608e-07
1.46608e-07
1.46608e-07
1.46608e-07
1.46608e-07
1.46608e-07
1.46608e-07
1.46608e-07
1.46608e-07
1.46608e-07
1.46608e-07
1.46608e-07
1.46608e-07
1.46608e-07
1.46608e-07
1.46608e-07
1.46608e-07
1.46608e-07
1.46608e-07
1.46608e-07
1.46608e-07
1.46608e-07
1.46608e-07
1.46608e-07
1.46608e-07
1.46608e-07
1.46608e-07
1.46608e-07
1.46608e-07
1.46608e-07
1.46608e-07
1.46608e-07
1.46608e-07
1.46608e-07
1.46608e-07
1.46608e-07
1.46608e-07
1.46608e-07
1.46608e-07
1.46608e-07
1.46608e-07
1.46608e-07
1.46608e-07
1.46608e-07
1.46608e-07
1.46608e-07
1.46608e-07
1.46608e-07
1.46608e-07
1.46608e-07
1.46608e-07
1.46608e-07
1.46608e-07
1.46608e-07
1.46608e-07
1.46608e-07
1.46608e-07
1.46608e-07
1.46608e-07
1.46608e-07
1.46608e-07
1.46608e-07
1.46608e-07
1.46608e-07
1.46608e-07
1.46608e-07
1.46608e-07
1.46608e-07
1.46608e-07
1.46608e-07
1.46608e-07
1.46608e-07
1.46608e-07
1.46608e-07
1.46608e-07
1.46608e-07
1.46608e-07
1.46608e-07
1.46608e-07
1.46608e-07
1.46608e-07
1.46608e-07
1.46608e-07
1.46608e-07
1.46608e-07
1.46608e-07
1.46608e-07
1.46608e-07
1.46608e-07
1.46608e-07
1.46608e-07
1.46608e-07
1.46608e-07
1.46608e-07
1.46608e-07
1.46608e-07
1.46608e-07
1.46608e-07
1.46608e-07
1.46608e-07
1.46608e-07
1.46608e-07
1.46608e-07
1.46608e-07
1.46608e-07
1.46608e-07
1.46608e-07
1.46608e-07
1.46608e-07

VECTORS velocity float
0.00253168 -0.00381926 0.00681385
0.00353495 0.00818731 0.00252294
-0.0136452 -0.0025828 -0.000507085
1.17466e-15 -5.58066e-15 -9.5114e-14
0.00114856 -0.000337172 -0.0171464
0.000213421 0.0185011 -0.0165219
0.000293603 -0.0101675 0.0227576
0.000373211 -0.0101043 -0.0215353
0.000985796 0.0138461 0.00942942
0.000888159 -0.00300237 -0.021902
0.301375 -0.010933 -0.0545138
-1.30263e-14 2.70471e-14 3.32733e-13
-0.00233372 -0.00217185 0.0003511
0.0731551 -0.0564084 0.0170496
0.000249266 0.0219266 0.0123928
9.2985e-15 -2.33941e-14 1.89534e-13
-0.00248051 -0.000114385 0.00239667
0.000903797 -0.00689885 0.0215326
4.49563e-15 2.50862e-14 1.72932e-13
0.000170217 -0.0255451 -0.000297634
4.57851e-05 -0.00471992 0.0255708
0.00188189 -0.022659 0.00168159
4.50513e-05 -0.00858607 0.0244265
0.000707892 0.0141621 -0.00551188
0.000416201 0.0245897 -0.00523791
0.00228386 0.012269 0.011717
0.000529582 -0.0182268 -0.0142191
0.010595 0.029233 -0.00763905
0.000330126 0.0236526 0.00447409
0.000334598 -0.0235201 0.00799224
0.000637471 -0.0161496 0.01736
0.00123048 0.00251697 -0.0214768
0.000856872 -0.0205217 -0.0101141
0.00531271 0.00432705 -0.00563068
0.00338684 -0.00744499 0.00888363
-0.0185326 0.0143909 -0.0165556
0.00123988 0.0153548 0.0164688
0.000340456 0.00931543 -0.0224772
0.00160797 0.0137417 -0.000959914
0.00377594 0.011809 -0.00410819
-7.89882e-16 2.25677e-14 7.79336e-14
0.00106364 0.00222862 -0.0214004
0.000143968 0.024441 0.0061163
-9.69236e-317 -9.6912e-317 3.10717e-12
-0.000154943 -0.000185859 -0.000216287
-0.00167268 0.00775395 0.012904
-1.03589e-14 1.48968e-14 1.99436e-13
0.00360484 -0.00570586 0.0291123
0.00811854 0.00354895 0.00218083
0.00295776 0.000900861 -0.00260148
-0.0183619 -0.00257792 -0.00212474
-0.0378139 0.154067 0.154996
0.0196437 -0.0117369 -0.00535159
0.00359949 0.00505573 0.00417056
-4.86576e-06 1.97011e-05 -1.216e-06
0.00342831 -0.00283466 0.0144238
0.00378898 0.00720578 -0.00203905
0.00156364 0.0186531 0.00708891
0.000919137 -0.00392563 0.0224344
0.000933559 -0.0197254 -0.000870326
1.83331e-20 1.45333e-21 1.8267e-20
0.000212177 0.00515656 0.0233892
-0.500285 0.254056 0.0146711
0.000595477 0.0218322 0.0089495
0.00103568 0.00126259 0.0116486
0.000444174 0.0229992 -0.00534517
0.00197574 -0.0160269 0.0390306
-9.71277e-317 -9.74727e-317 1.79684e-12
0.000696819 0.00893778 0.0218402
1.06218e-14 1.89475e-14 2.48644e-13
-0.000887362 -0.000499759 0.000497983
-1.11255e-15 -1.75119e-14 8.40188e-14
0.00209871 -0.0186628 -0.00226747
-0.000221672 -0.0138039 -0.00538416
0.00396971 -0.00183737 -0.00677249
0.000207763 0.0197655 -0.0172599
0.0174937 -0.0386206 0.0734087
0.00194456 -0.010772 -0.0160068
0.000826608 -0.019588 0.0154538
0.00036902 0.010488 -0.0150264
-4.168e-05 0.018585 -0.000413919
0.00295958 -0.00171713 -0.0106372
-4.09724e-05 0.00218602 0.0257116
0.00118776 -0.0226939 0.00237176
0.000239214 -0.0187894 0.0154461
0.0010196 -0.0204894 -0.00737643
0.000302068 -0.0128887 0.0227714
0.00111238 -0.0103238 -0.0174199
5.71513e-15 -2.4469e-14 6.92179e-14
0.000173042 -0.022242 -0.0139817
0.0039825 -0.00660592 -0.0091962
-0.00419652 -0.0357941 0.0158202
0.00331755 0.0126939 0.00163709
0.00110512 -0.0223458 -0.00803762
3.91789e-05 -0.000617298 0.000337855
0.000964983 -0.0199301 0.0119372
0.000496664 -0.0242367 -0.00818913
2.40619e-15 -4.18118e-14 1.54367e-13
0.000453194 0.0118421 0.0203822
5.21405e-15 -3.12771e-14 -1.20225e-13
2.649e-14 -5.64293e-14 -2.04448e-13
0.000460371 -0.00595179 -0.0171882
0.000178719 -0.0170624 -0.0179128
0.00134765 -0.0142911 0.0200372
0.000304228 0.0181144 0.0185565
0.00371253 -0.00266512 -0.00317452
0.000270679 0.0106546 0.0232256
0.00151549 -0.00126778 -0.00104608
-6.01501e-05 0.000170406 -4.2047e-05
0.00177469 -0.0110448 0.0125778
-9.72922e-317 -9.70169e-317 -1.69736e-12
0.00101885 0.00734282 -0.0217285
5.10252e-05 0.0227482 -0.0114302
-2.96225e-11 -1.13184e-10 2.87609e-11
4.43886e-16 -2.03289e-15 1.00233e-14
7.33797e-05 0.00041537 -0.00243749
0.00154272 0.000588753 -0.0025914
0.00145511 0.0136783 -0.015057
1.93357e-10 1.04572e-09 -1.52047e-10
2.72192e-05 5.51971e-05 -8.38597e-06
0.00132866 -0.00917625 -0.0182589
0.00373228 0.00879707 -0.00646861
0.000831953 0.00185185 -0.0235198

VECTORS force float
4.26346e-10 -3.9389e-08 1.23251e-08
-1.18493e-07 -1.43602e-07 4.61207e-08
9.67837e-08 -1.04997e-08 6.94095e-08
6.30642e-21 2.2367e-21 0.0
-1.28307e-06 1.55079e-07 2.77355e-07
-6.00173e-10 -4.35645e-09 -1.48632e-08
-1.0051e-09 1.28145e-08 8.13266e-09
-7.6927e-07 1.53306e-07 -7.91685e-08
-6.32235e-08 -2.53648e-07 -1.95885e-07
3.56205e-08 -1.09806e-07 -4.46913e-07
0.0 0.0 -1.43822e-06
-3.67003e-20 2.03817e-21 -8.47033e-22
-6.0785e-09 6.47723e-07 -4.95582e-07
-3.10489e-07 5.01337e-07 -1.68222e-07
-2.62374e-09 1.50176e-08 -8.25951e-09
1.13545e-18 -2.46434e-20 -5.46336e-20
1.45174e-07 -5.7627e-07 -3.16522e-07
2.37761e-08 3.97224e-08 -4.83408e-08
5.98879e-21 5.19337e-20 -7.6233e-21
-8.77646e-10 -6.63202e-09 1.4967e-08
-1.63072e-09 1.29507e-08 7.9479e-09
-3.27513e-08 3.63665e-08 3.27967e-08
-2.0049e-09 1.23591e-08 9.59018e-09
-2.43e-09 -7.29542e-10 -9.89171e-09
-9.77963e-10 3.91857e-10 -2.14623e-08
-4.7031e-09 3.99125e-08 -4.07757e-09
5.40828e-07 6.77017e-07 3.92284e-07
-6.44995e-08 -1.35672e-07 3.6522e-08
-2.8063e-08 -7.20739e-08 -2.19575e-08
-1.96686e-10 -1.26726e-09 1.51598e-08
-7.75768e-09 5.79802e-09 1.30808e-08
-9.81604e-09 -1.99712e-09 -3.99885e-08
-5.86852e-07 -1.31065e-07 -2.369e-07
3.52912e-08 5.64284e-08 -1.26078e-07
-1.03831e-05 -4.72438e-06 -1.89884e-06
2.34319e-08 -2.81747e-08 4.34158e-09
-1.08415e-08 2.78382e-08 6.61171e-09
5.83403e-09 -1.62396e-08 3.38917e-08
4.91288e-07 -1.03427e-06 2.52063e-07
-3.19542e-09 -3.34229e-08 2.80961e-08
-1.17819e-19 -3.59989e-21 2.11758e-22
8.52432e-07 -1.29133e-07 3.53805e-08
6.60136e-08 -3.41677e-11 -2.07776e-09
0.0 0.0 0.0
-8.7912e-08 -4.67669e-07 -2.32529e-07
0.0 0.0 -1.43822e-06
-3.30872e-22 -2.51463e-22 -2.11758e-22
9.61052e-10 3.09027e-08 -1.41976e-07
-8.95968e-07 1.19884e-05 1.44066e-06
7.03699e-09 1.45614e-07 9.18929e-08
3.12104e-07 -1.7033e-07 -1.37392e-08
0.0 0.0 -1.43822e-06
0.0 0.0 -1.43822e-06
0.0 0.0 -1.43822e-06
3.20641e-08 -1.37389e-07 8.45691e-09
-2.12689e-08 -1.30677e-08 4.06082e-08
3.02824e-08 -3.0777e-08 1.05357e-07
4.88032e-08 -6.36618e-08 -6.71507e-09
-1.00987e-08 1.13714e-08 2.59434e-08
-6.74364e-09 -1.15676e-07 3.8905e-08
0.0 0.0 0.0
-1.04119e-09 1.60962e-08 6.05419e-09
-0.0303534 0.00084422 -0.00582135
-4.88404e-09 1.92564e-08 -8.21737e-09
-1.65242e-09 -7.31001e-09 -8.73246e-08
-6.22974e-09 1.54009e-08 -1.79672e-08
0.0 0.0 -1.43822e-06
0.0 0.0 0.0
-7.61863e-09 2.12598e-08 3.36596e-09
-1.00056e-19 4.07238e-20 1.05879e-21
-4.73797e-06 -2.98304e-07 -2.52844e-07
-2.61058e-21 5.29396e-23 2.11758e-22
7.12699e-07 -3.7935e-06 -3.71117e-07
-1.38475e-08 -2.65499e-08 4.39174e-09
9.20121e-09 1.5098e-07 1.7091e-07
-1.78191e-10 -8.9971e-09 -1.34128e-08
0.0 0.0 -1.43822e-06
-1.81889e-06 -2.03821e-07 3.95269e-08
6.08009e-09 8.54219e-09 1.11834e-08
-1.52352e-10 -3.807e-08 5.20557e-08
2.42212e-07 -6.45321e-07 -1.69814e-07
-5.69535e-05 -3.887e-06 4.78851e-07
-1.27807e-09 1.51624e-08 1.25074e-09
2.2123e-08 1.7483e-08 1.93583e-08
2.53e-09 2.29581e-08 5.48033e-09
-1.057e-08 -5.74025e-08 -2.08211e-09
6.32293e-10 1.27618e-08 8.88002e-09
2.76414e-09 9.12329e-09 3.67308e-08
-2.66061e-19 -8.99973e-22 1.927e-20
-1.41035e-09 -1.0884e-08 1.08239e-08
3.43939e-05 9.63477e-06 1.64555e-05
0.0 0.0 -1.43822e-06
-5.9129e-09 -8.30018e-08 2.9933e-08
-4.70768e-06 2.18756e-06 -8.2143e-07
1.62061e-06 -6.81947e-08 -7.00917e-07
-2.48873e-08 1.49178e-08 -3.1987e-08
-2.39595e-09 -1.05725e-08 1.43156e-08
-9.19825e-22 5.29396e-23 0.0
6.98898e-08 3.03626e-07 3.44526e-07
4.56604e-22 -5.82335e-22 0.0
-5.53218e-21 7.99387e-21 -2.96462e-21
-2.27444e-07 9.25105e-08 -6.1151e-07
-7.42359e-10 -1.5572e-08 5.50107e-09
1.60521e-08 -5.19019e-08 4.33307e-08
-5.64111e-09 1.36392e-08 -4.81779e-09
-1.62588e-08 9.87142e-08 8.83362e-08
-9.7444e-09 1.47236e-08 1.46785e-09
1.06493e-06 6.92311e-07 3.51423e-07
-1.61019e-07 9.89313e-08 -2.28707e-07
5.5985e-09 -2.03902e-08 5.93254e-08
0.0 0.0 0.0
-9.966e-08 2.79127e-08 1.34397e-07
-2.89947e-10 -4.30917e-09 -1.56385e-08
2.19263e-13 7.61478e-13 -1.95227e-13
7.64977e-21 5.45277e-21 6.35275e-22
0.0 0.0 -1.43822e-06
-3.34085e-08 -1.63841e-08 6.59632e-08
-1.37552e-08 9.98821e-09 -3.57318e-08
1.10616e-14 -3.74073e-13 5.18768e-14
1.25432e-08 3.9436e-08 -5.63748e-09
1.13877e-08 3.20463e-08 7.39113e-08
-4.9473e-08 2.16885e-07 -9.97286e-08
-1.52905e-08 -1.27206e-08 -1.86758e-08
