ITEM: TIMESTEP
9000000
ITEM: NUMBER OF ATOMS
167
ITEM: BOX BOUNDS ff ff ff
-0.02 0.43
-0.02 0.09
-0.02 0.1
ITEM: ATOMS id type x y z vx vy vz fx fy fz radius mass 
1 1 0.0161838 0.0226244 0.0141428 0.006402 0.0040846 -0.00635747 7.92831e-07 -2.12427e-06 1.41436e-06 0.0005 1.46608e-07 
2 1 0.0291547 0.0152076 0.00956675 0.0023381 -0.00772145 0.0173586 1.59805e-06 3.38435e-09 2.79378e-06 0.0005 1.46608e-07 
3 1 0.0222427 0.0150541 0.0155 0.00346953 0.0603286 -0.0446043 0 0 -1.43822e-06 0.0005 1.46608e-07 
5 1 0.030778 0.0213738 0.00784293 0.00107169 -0.0172764 -0.012089 3.66959e-10 -3.08196e-08 -9.79684e-10 0.0005 1.46608e-07 
6 1 0.0459023 0.020036 0.00580076 8.8738e-19 8.43251e-19 6.45641e-18 5.29396e-23 0 0 0.0005 1.46608e-07 
7 1 0.0163283 0.0238849 0.0144485 0.00474514 -0.0516193 -0.027546 0 0 -1.43822e-06 0.0005 1.46608e-07 
8 1 0.0227632 0.0235124 0.0142672 -0.00189212 0.00178876 0.000238514 -1.92581e-07 -1.07815e-07 4.55636e-07 0.0005 1.46608e-07 
9 1 0.0246896 0.021007 0.00786839 0.000394119 -0.0221622 -0.0130937 -5.88505e-09 -1.27487e-08 1.00075e-08 0.0005 1.46608e-07 
10 1 0.0201192 0.0234805 0.011732 0.000420271 0.000529883 0.000212207 6.29572e-06 1.13738e-06 8.09231e-06 0.0005 1.46608e-07 
11 1 0.0214515 0.0226755 0.0140845 -0.00100026 0.0109714 -0.0151478 -7.50399e-06 -2.74801e-05 3.87153e-05 0.0005 1.46608e-07 
13 1 0.0165089 0.0219827 0.0148373 0.00398716 0.00443727 -0.00446492 2.00717e-07 1.12501e-06 -1.82765e-07 0.0005 1.46608e-07 
14 1 0.0232846 0.0177306 0.0157497 -0.00394919 0.00696466 -0.0248245 0 0 -1.43822e-06 0.0005 1.46608e-07 
17 1 0.0556738 0.0206032 0.00597199 6.14487e-15 9.58392e-14 -2.04951e-13 -1.15594e-19 1.15408e-20 2.32934e-21 0.0005 1.46608e-07 
19 1 0.0289631 0.0169386 0.00627567 -1.72088e-14 5.85631e-14 1.44107e-13 1.3174e-19 3.28225e-20 1.05879e-21 0.0005 1.46608e-07 
22 1 0.0261201 0.0203074 0.00595389 -1.40976e-14 -2.27108e-15 2.29842e-13 5.16161e-22 -3.97874e-21 0 0.0005 1.46608e-07 
23 1 0.02894 0.0149088 0.0104147 0.000349799 -0.0074919 0.0236864 -5.39786e-07 -1.34208e-07 -1.32957e-06 0.0005 1.46608e-07 
24 1 0.0270989 0.0199839 0.00601073 -1.07574e-14 -1.72605e-15 1.75368e-13 0 1.50547e-22 0 0.0005 1.46608e-07 
26 1 0.0224609 0.0149151 0.0126858 0.000249942 0.00644935 0.0247892 -6.41235e-08 9.51302e-08 2.18857e-07 0.0005 1.46608e-07 
28 1 0.0182088 0.0139395 0.0133389 0.00579521 0.0051714 -0.0177012 -5.9444e-09 2.92021e-07 -1.05236e-06 0.0005 1.46608e-07 
29 1 0.023906 0.0213948 0.0161906 -0.01288 0.0160355 -0.00719073 -1.4021e-07 2.77165e-07 -2.73127e-07 0.0005 1.46608e-07 
31 1 0.0274854 0.0176387 0.0155467 0.000982314 0.0233254 0.010192 -1.78266e-06 -3.85413e-06 -2.81924e-07 0.0005 1.46608e-07 
32 1 0.0189847 0.023198 0.0147832 0.111446 -0.000267838 0.00554608 0 0 -1.43822e-06 0.0005 1.46608e-07 
33 1 0.0326564 0.0211857 0.015176 3.96695e-05 0.0226454 -0.0121767 -3.66723e-10 -3.37828e-09 -1.64129e-08 0.0005 1.46608e-07 
34 1 0.0196049 0.0228601 0.00960407 0.000222218 -0.011126 -0.0211132 -3.5469e-09 -1.66395e-08 -7.38291e-09 0.0005 1.46608e-07 
36 1 0.024689 0.0219575 0.0159259 -0.00192411 0.00344849 -0.000703896 -2.61086e-07 4.98188e-07 -1.30227e-07 0.0005 1.46608e-07 
37 1 0.0204883 0.0233451 0.0125305 0.00341444 0.00139975 -0.00219582 9.20118e-06 -1.54637e-06 5.51848e-06 0.0005 1.46608e-07 
38 1 0.0572713 0.0188707 0.00584588 -2.14951e-16 -6.85659e-16 -1.57509e-14 1.4158e-20 -1.0085e-20 2.11758e-22 0.0005 1.46608e-07 
48 1 0.0234976 0.0161477 0.00829511 0.000295926 -0.0196008 0.0164026 -7.5542e-10 2.93709e-09 1.67204e-08 0.0005 1.46608e-07 
49 1 0.0966017 0.0221593 0.00668674 -3.1671e-15 7.02674e-14 -2.01473e-13 1.67084e-18 -1.41455e-19 -6.03511e-20 0.0005 1.46608e-07 
51 1 0.0220207 0.0232362 0.0129962 0.00179062 0.00408268 -0.0124477 2.52345e-05 1.20465e-05 1.87196e-06 0.0005 1.46608e-07 
53 1 0.0210897 0.0200598 0.00599931 -6.31585e-15 2.83264e-15 -5.78006e-14 2.91168e-22 1.6676e-21 0 0.0005 1.46608e-07 
54 1 0.0629287 0.0190175 0.00579633 -2.96245e-15 -1.28164e-14 -9.1827e-14 4.6743e-19 -1.14482e-19 1.05879e-21 0.0005 1.46608e-07 
56 1 0.0527504 0.0171484 0.00612024 4.03062e-15 1.4411e-14 2.1642e-13 4.4006e-21 -5.691e-22 0 0.0005 1.46608e-07 
57 1 0.0199613 0.0241852 0.0140671 -0.0129787 0.000595937 -0.00988889 0 0 -1.43822e-06 0.0005 1.46608e-07 
61 1 0.0162883 0.0151987 0.0137174 0.00405503 0.00461125 0.0072569 4.27188e-07 -3.32304e-08 1.51594e-06 0.0005 1.46608e-07 
62 1 0.0229688 0.0147082 0.0145145 -0.00751505 0.00252976 -0.017159 -2.12425e-07 3.02644e-07 -8.74915e-07 0.0005 1.46608e-07 
64 1 0.0276709 0.0190757 0.00600781 2.28432e-14 -1.8797e-16 2.67978e-13 -7.94093e-23 5.20297e-22 0 0.0005 1.46608e-07 
65 1 0.0321139 0.0229229 0.0133857 0.000291541 0.0119735 -0.0229786 1.31689e-08 -7.2207e-08 1.22041e-07 0.0005 1.46608e-07 
66 1 0.0177771 0.0148264 0.0128785 0.00793727 -0.000465096 0.00256361 8.36525e-08 1.6979e-07 -1.79687e-06 0.0005 1.46608e-07 
71 1 0.021453 0.0239451 0.0133959 0.00238881 8.49707e-05 -0.00237527 -2.49979e-05 9.97337e-06 -9.5657e-06 0.0005 1.46608e-07 
74 1 0.0202942 0.022854 0.0137882 0.000930076 0.00950659 -0.0159595 8.0951e-07 -4.00397e-08 -2.14198e-06 0.0005 1.46608e-07 
75 1 0.0232191 0.0220998 0.0157762 -0.0137228 0.0159501 -0.0107223 3.87683e-07 6.54459e-07 -6.65748e-07 0.0005 1.46608e-07 
77 1 0.0335536 0.0173873 0.0154444 0.000375047 0.0224615 0.00911303 -2.58232e-09 1.48474e-08 -1.01704e-08 0.0005 1.46608e-07 
78 1 0.0263947 0.0221533 0.0143075 0.0012887 0.0179981 -0.0182254 4.11964e-09 -1.34992e-08 -2.38252e-08 0.0005 1.46608e-07 
80 1 0.0252288 0.0228868 0.00946909 0.00455564 -0.00582645 -0.00802566 -2.17014e-05 -1.37116e-05 1.26483e-05 0.0005 1.46608e-07 
82 1 0.0168016 0.0146562 0.0126108 -0.0134226 0.0126216 -0.00362231 0 0 -1.43822e-06 0.0005 1.46608e-07 
83 1 0.0212191 0.0138511 0.0141653 -0.0037621 -0.00353057 0.00224342 1.08975e-06 6.12787e-07 6.44299e-07 0.0005 1.46608e-07 
84 1 0.0280571 0.0157463 0.0142155 0.000166937 0.00686579 0.00913717 -1.19001e-06 -1.58289e-06 -1.65855e-06 0.0005 1.46608e-07 
85 1 0.0260136 0.0231235 0.0129924 0.00133993 0.00985333 -0.0201761 1.04219e-08 -3.30968e-08 1.96938e-08 0.0005 1.46608e-07 
86 1 0.0207395 0.0222295 0.0146309 -0.0162222 0.0254264 -0.0255512 0 0 -1.43822e-06 0.0005 1.46608e-07 
89 1 0.0207888 0.0212685 0.015352 1.93627e-05 0.0234651 -0.0134995 -6.86451e-10 -9.3168e-09 -2.24631e-08 0.0005 1.46608e-07 
91 1 0.0217887 0.0212639 0.0153539 6.20353e-06 0.0208849 -0.0120848 -1.97972e-09 -1.6075e-08 -1.28106e-08 0.0005 1.46608e-07 
92 1 0.0281545 0.0153515 0.0135963 0.00170232 0.00648729 0.00936314 2.45687e-06 3.3268e-06 -2.8066e-06 0.0005 1.46608e-07 
94 1 0.0436535 0.0179267 0.0060538 4.68636e-15 -1.55976e-14 -8.53759e-14 4.08429e-19 -6.95626e-20 3.64224e-20 0.0005 1.46608e-07 
96 1 0.0303405 0.0197356 0.00726964 0.000120603 -0.0248666 -0.00451651 -9.73231e-10 -1.12595e-08 1.33031e-08 0.0005 1.46608e-07 
97 1 0.0241683 0.018476 0.00724817 0.00107638 -0.0170666 0.00251616 -1.04887e-05 7.52536e-07 -1.28309e-07 0.0005 1.46608e-07 
99 1 0.0301064 0.0184247 0.00722651 0.00105574 -0.021032 0.00354254 -7.73776e-09 -2.45182e-08 2.1178e-08 0.0005 1.46608e-07 
101 1 0.017534 0.014627 0.0119293 0.00152708 -0.000425414 0.00149665 -1.07949e-06 4.36756e-07 4.43865e-06 0.0005 1.46608e-07 
102 1 0.0705187 0.0193244 0.00582834 -8.68875e-15 -9.73797e-15 1.68245e-13 -4.28943e-20 5.74791e-20 1.48231e-21 0.0005 1.46608e-07 
104 1 0.0481607 0.0180669 0.00608584 9.43848e-15 -2.02978e-14 -2.10799e-13 -1.6676e-21 3.04402e-21 -4.23516e-22 0.0005 1.46608e-07 
105 1 0.0267847 0.0211133 0.0153588 0.00332108 0.00606846 -0.00481444 -1.63166e-08 -2.48056e-08 2.44833e-08 0.0005 1.46608e-07 
106 1 0.0259514 0.0184326 0.00592502 -7.41602e-15 -1.1869e-15 1.20894e-13 -5.04249e-21 -1.66693e-20 -4.23516e-22 0.0005 1.46608e-07 
108 1 0.105358 0.0186487 0.00585656 3.5422e-15 -6.02624e-15 5.30442e-14 -1.41084e-20 8.57621e-21 1.69407e-21 0.0005 1.46608e-07 
109 1 0.0160804 0.0157984 0.014533 0.00174436 0.00837378 0.00819295 -6.4659e-08 -2.80997e-07 -3.17548e-07 0.0005 1.46608e-07 
110 1 0.0324343 0.0222588 0.0143776 0.00118387 0.0147856 -0.0146431 -7.48996e-10 -3.59267e-08 1.09287e-09 0.0005 1.46608e-07 
112 1 0.0198307 0.0139493 0.01309 -0.000474683 -0.000694949 0.00132385 -6.46604e-08 5.05571e-08 -1.56116e-07 0.0005 1.46608e-07 
114 1 0.0171552 0.0235951 0.0152258 -0.0812998 -0.00173314 0.181652 0 0 -1.43822e-06 0.0005 1.46608e-07 
115 1 0.0178457 0.020276 0.00611885 -2.71418e-14 -1.0981e-14 2.23773e-13 9.42324e-21 -1.66098e-20 2.11758e-22 0.0005 1.46608e-07 
116 1 0.0232477 0.0163874 0.0150632 -0.00600977 -0.00574 0.00110237 0 0 -1.43822e-06 0.0005 1.46608e-07 
118 1 0.0318609 0.023313 0.0122966 0.00130267 0.00516376 -0.023108 -2.49276e-08 7.63512e-09 5.84987e-08 0.0005 1.46608e-07 
121 1 0.0339478 0.0162069 0.0147383 0.000445818 0.019034 0.0169882 -9.3907e-09 1.85634e-08 1.90257e-09 0.0005 1.46608e-07 
124 1 0.0210504 0.02311 0.0132789 0.00385586 0.00333298 -0.00628835 4.26825e-06 -6.38522e-06 5.98731e-06 0.0005 1.46608e-07 
128 1 0.0272104 0.0191227 0.0158365 0.000366552 0.0234727 -0.000807804 6.47277e-08 3.12719e-07 -3.17969e-08 0.0005 1.46608e-07 
129 1 0.0223119 0.0151458 0.0136474 0.000566129 0.011188 0.0256554 0 0 -1.43822e-06 0.0005 1.46608e-07 
131 1 0.0267509 0.0211794 0.0061033 -5.60571e-08 -8.59288e-08 1.11269e-08 -2.14116e-11 -1.20192e-10 -7.30344e-14 0.0005 1.46608e-07 
132 1 0.0195687 0.021664 0.00803754 0.000608774 -0.00364001 -0.00286786 -1.53867e-07 -4.31903e-07 -3.92398e-07 0.0005 1.46608e-07 
133 1 0.022426 0.0227144 0.0147732 -0.0101059 -0.0144041 -0.0282539 0 0 -1.43822e-06 0.0005 1.46608e-07 
134 1 0.0199712 0.0233611 0.0130175 0.00452001 0.00203328 -0.00450223 5.2898e-06 -9.41257e-06 7.2945e-06 0.0005 1.46608e-07 
135 1 0.0163662 0.0142236 0.013925 0.00548774 0.0010838 -0.00834791 1.5389e-07 -5.95013e-07 -8.47247e-07 0.0005 1.46608e-07 
136 1 0.0172422 0.0141851 0.0134284 -0.00304094 -0.0140208 -0.0168944 -1.1365e-07 -1.61231e-07 -9.89456e-07 0.0005 1.46608e-07 
137 1 0.0165326 0.0187216 0.0159295 6.61406e-11 0.024023 0.00175933 3.19455e-16 1.34923e-09 -1.87821e-08 0.0005 1.46608e-07 
138 1 0.0130325 0.0210394 0.0163539 -2.11414e-08 0.0268431 -0.0109668 -2.85524e-14 -8.76587e-09 -2.15111e-08 0.0005 1.46608e-07 
139 1 0.032981 0.0200108 0.0156543 0.00100809 0.0199889 -0.00634999 2.71898e-06 -1.88233e-06 -1.59434e-06 0.0005 1.46608e-07 
140 1 0.0204412 0.0241778 0.0131883 -0.000629676 0.00174318 -0.00121747 -7.23969e-06 2.49675e-06 -3.94408e-06 0.0005 1.46608e-07 
142 1 0.0257953 0.0233495 0.0119897 0.000364482 0.00325677 -0.0248687 -2.07309e-09 -1.08502e-08 -1.54461e-08 0.0005 1.46608e-07 
143 1 0.0220957 0.0143367 0.0141958 -0.00429849 -0.00326296 -0.00266453 0 0 -1.43822e-06 0.0005 1.46608e-07 
144 1 0.0316501 0.0233752 0.0110506 0.000177486 -0.0015021 -0.0258854 6.38481e-10 -1.54576e-08 -4.49128e-09 0.0005 1.46608e-07 
145 1 0.0293286 0.0155263 0.00901861 0.00196637 -0.0116738 0.0182761 8.61735e-07 6.05467e-07 -4.16012e-06 0.0005 1.46608e-07 
146 1 0.0207951 0.0175693 0.0074519 0.000247203 -0.0244984 0.00937216 -9.82433e-09 -1.60275e-07 5.42333e-08 0.0005 1.46608e-07 
147 1 0.0212075 0.0210762 0.00618118 -1.61419e-15 -1.02094e-14 2.10244e-14 3.82488e-21 2.11758e-22 4.23516e-22 0.0005 1.46608e-07 
148 1 0.0158606 0.023106 0.0133284 0.00743997 0.00223906 -0.0075616 -2.13091e-06 -1.01976e-06 2.89335e-06 0.0005 1.46608e-07 
150 1 0.0242612 0.0193701 0.00717136 0.0033399 -0.00441278 -0.0021711 -8.06948e-06 1.10396e-05 1.14379e-05 0.0005 1.46608e-07 
152 1 0.0173003 0.0151912 0.0137035 -0.00413599 0.00359443 0.00066568 0 0 -1.43822e-06 0.0005 1.46608e-07 
153 1 0.0154342 0.0235346 0.0150508 -0.0102285 -0.0596338 -0.0081522 0 0 -1.43822e-06 0.0005 1.46608e-07 
155 1 0.027746 0.0212738 0.00613245 -6.18209e-08 -7.6087e-09 -4.73402e-08 -3.46831e-11 3.5531e-11 -3.28928e-11 0.0005 1.46608e-07 
156 1 0.0226871 0.0225725 0.00900993 0.00056576 -0.00470537 -0.00533933 3.46202e-09 4.9658e-09 3.29617e-08 0.0005 1.46608e-07 
157 1 0.0143593 0.0230656 0.0153125 -0.0022023 -0.0227888 0.03474 0 0 -1.43822e-06 0.0005 1.46608e-07 
158 1 0.0269878 0.020106 0.0156438 0.00218537 0.0157539 -0.00349472 -5.17111e-09 -2.31531e-09 7.88179e-10 0.0005 1.46608e-07 
163 1 0.0147543 0.0215925 0.0151641 0.00122867 0.00711768 -0.00555808 4.00138e-06 -7.64374e-06 6.2849e-06 0.0005 1.46608e-07 
164 1 0.0390245 0.019051 0.00572553 -3.93617e-15 1.8854e-14 -9.32075e-14 7.45654e-20 1.6623e-20 6.35275e-22 0.0005 1.46608e-07 
165 1 0.0303483 0.0167934 0.00782311 0.00218653 -0.0186658 0.0122866 -1.23329e-06 6.81238e-07 -1.29109e-07 0.0005 1.46608e-07 
168 1 0.0234091 0.023052 0.014876 -0.00193982 0.00223037 0.000484608 4.29522e-07 4.44157e-07 1.28502e-06 0.0005 1.46608e-07 
169 1 0.0254093 0.0215023 0.0167457 6.47626e-07 0.000110023 0.000129745 -9.31955e-10 3.89525e-10 7.84284e-10 0.0005 1.46608e-07 
170 1 0.0230853 0.0209256 0.0165343 -0.0518839 0.00876819 -0.0892632 0 0 -1.43822e-06 0.0005 1.46608e-07 
171 1 0.0258293 0.0197019 0.0167151 0.000274716 0.00286928 0.00189215 2.67974e-08 9.67989e-09 2.03108e-08 0.0005 1.46608e-07 
173 1 0.020856 0.0140842 0.0132632 -0.000584486 -0.000815307 0.00169684 -3.24121e-07 -3.48603e-07 -3.21702e-08 0.0005 1.46608e-07 
174 1 0.018513 0.0143497 0.0123899 0.00356696 0.0209052 -0.0347095 -4.47737e-08 3.68652e-07 -6.12082e-07 0.0005 1.46608e-07 
178 1 0.0240796 0.0179283 0.0166283 -0.000828053 0.0153112 0.00406419 2.6894e-07 1.19146e-06 2.18165e-06 0.0005 1.46608e-07 
182 1 0.0309743 0.022139 0.00845462 0.000848783 -0.0170947 -0.0182039 -7.50038e-09 -4.81148e-08 -7.93537e-09 0.0005 1.46608e-07 
187 1 0.0233975 0.0155788 0.0142716 0.0029473 -0.00213991 -0.00219386 -3.62654e-08 -3.12314e-07 -3.37862e-07 0.0005 1.46608e-07 
189 1 0.0195162 0.0241411 0.0127841 -0.00345584 -0.00349193 0.00575501 6.03649e-05 -1.13125e-06 -5.02627e-06 0.0005 1.46608e-07 
193 1 0.0189475 0.0219996 0.00839392 -0.000854488 -0.0161994 -0.0173318 -9.19299e-08 -4.09796e-08 -7.67176e-08 0.0005 1.46608e-07 
194 1 0.0233652 0.0155633 0.00891882 0.000351202 -0.0143678 0.0197001 -4.16766e-09 4.32291e-09 2.26496e-08 0.0005 1.46608e-07 
195 1 0.0194503 0.0231842 0.0103542 0.00180495 -0.00627408 -0.0195236 -1.0466e-08 -2.43106e-08 -3.17459e-08 0.0005 1.46608e-07 
199 1 0.022416 0.01563 0.0145662 0.0063929 0.0253475 0.0022136 0 0 -1.43822e-06 0.0005 1.46608e-07 
203 1 0.0256888 0.0205949 0.0170051 0.000132423 0.000811075 0.000711939 -2.26321e-09 1.07725e-09 4.86157e-09 0.0005 1.46608e-07 
205 1 0.0219179 0.0240774 0.0142745 -0.0019108 0.00715946 0.0100388 0 0 -1.43822e-06 0.0005 1.46608e-07 
207 1 0.0210576 0.0236133 0.0121632 0.000989784 0.000190997 -0.000612848 4.93033e-06 -2.32797e-06 1.94035e-06 0.0005 1.46608e-07 
209 1 0.0181099 0.0243899 0.0137836 -0.0685041 0.00160211 0.0146554 0 0 -1.43822e-06 0.0005 1.46608e-07 
211 1 0.0182192 0.0148162 0.0138792 0.00518146 0.00628123 -0.00659069 0 0 -1.43822e-06 0.0005 1.46608e-07 
213 1 0.0144956 0.0223205 0.0145296 0.00349692 0.00804801 -0.00647474 -4.52656e-06 6.24061e-07 -2.41836e-06 0.0005 1.46608e-07 
214 1 0.0182871 0.0213195 0.0162478 -2.93655e-09 0.0261661 -0.01274 4.14728e-12 -1.04088e-08 -2.08793e-08 0.0005 1.46608e-07 
218 1 0.0190176 0.0237897 0.0139552 -0.0443878 -0.0400755 0.113954 0 0 -1.43822e-06 0.0005 1.46608e-07 
221 1 0.0201696 0.0143651 0.0139339 -0.000856049 0.00403567 -0.00089238 -8.4915e-07 -1.41867e-07 -3.88807e-07 0.0005 1.46608e-07 
222 1 0.0223838 0.0181052 0.00622395 -1.21991e-15 2.56771e-15 9.3868e-15 1.32799e-19 5.88159e-20 1.27055e-21 0.0005 1.46608e-07 
226 1 0.050189 0.0178786 0.0061193 4.78946e-16 1.72248e-15 2.58614e-14 -2.78594e-21 6.4851e-22 0 0.0005 1.46608e-07 
227 1 0.0170661 0.0195894 0.0159082 1.52508e-10 0.0239028 -0.00293968 -1.11939e-15 -2.32032e-09 -1.86829e-08 0.0005 1.46608e-07 
228 1 0.0186935 0.0204739 0.00744593 -6.57656e-05 -0.0231684 -0.00847797 7.0383e-07 2.59432e-08 7.91776e-08 0.0005 1.46608e-07 
230 1 0.00243883 0.0254703 0.0435188 9.7491e-317 -9.6804e-317 4.97437e-14 0 0 0 0.0005 1.46608e-07 
231 1 0.0227568 0.0201998 0.0157925 3.54994e-10 0.0233079 -0.00612792 5.28217e-16 -4.69213e-09 -1.82503e-08 0.0005 1.46608e-07 
232 1 0.0237624 0.0171283 0.00763769 0.000653694 -0.0214956 0.00926678 6.98358e-09 8.13325e-08 -6.48512e-08 0.0005 1.46608e-07 
235 1 0.0265495 0.0166042 0.0230588 -0.0279793 -0.0709464 0.00455416 0 0 -1.43822e-06 0.0005 1.46608e-07 
237 1 0.0240445 0.0225884 0.0154934 -0.000841312 0.00149853 -0.000506472 7.96438e-07 2.94374e-07 -3.63997e-07 0.0005 1.46608e-07 
238 1 0.0196057 0.0148713 0.012775 -0.000125536 0.00778117 0.0258223 9.98121e-08 2.662e-08 -1.1306e-07 0.0005 1.46608e-07 
239 1 0.0311797 0.0227717 0.00921683 0.00279954 -0.00960864 -0.013244 2.5343e-07 -3.21448e-07 -5.86955e-07 0.0005 1.46608e-07 
240 1 0.0177538 0.0240281 0.0125136 -4.30377e-05 -0.000447854 -0.00119739 2.08589e-06 1.73581e-07 -6.11035e-07 0.0005 1.46608e-07 
241 1 0.0303407 0.018037 0.00599387 -3.18692e-15 1.06906e-14 2.63417e-14 -4.13458e-20 8.55503e-20 -4.15046e-20 0.0005 1.46608e-07 
242 1 0.0300737 0.0166818 0.00651301 -1.9838e-14 6.74182e-14 1.6578e-13 -1.13026e-20 2.5411e-21 -2.11758e-21 0.0005 1.46608e-07 
243 1 0.0198425 0.0210381 0.00618353 -2.40601e-14 1.07986e-14 -2.20237e-13 -5.29396e-21 -1.39099e-20 -2.11758e-22 0.0005 1.46608e-07 
250 1 0.028687 0.014756 0.0116132 0.00103752 0.00128803 0.0187441 -5.73e-09 1.89144e-08 2.98826e-08 0.0005 1.46608e-07 
252 1 0.0298411 0.0174979 0.00752278 0.000666505 -0.0172436 0.0053745 -1.07238e-06 -2.37681e-06 8.60501e-07 0.0005 1.46608e-07 
258 1 0.0250339 0.0201085 0.0058853 -7.32898e-16 -1.14823e-16 1.19452e-14 -2.64698e-23 -1.33838e-21 0 0.0005 1.46608e-07 
259 1 0.0314169 0.0232025 0.0101546 0.000590164 -0.00741528 -0.0232314 -3.7048e-09 -1.83795e-08 -7.64313e-09 0.0005 1.46608e-07 
260 1 0.0190933 0.0142708 0.0136911 0.00159894 -0.00251071 0.00235083 -3.24248e-08 -2.30346e-07 -9.31507e-07 0.0005 1.46608e-07 
261 1 0.0468371 0.0203706 0.00591946 -8.7378e-19 -1.24621e-18 5.76535e-18 -5.29396e-23 5.29396e-23 0 0.0005 1.46608e-07 
262 1 0.0277341 0.016902 0.0151385 0.000470257 0.0203594 0.013002 3.24828e-06 -1.50641e-05 -6.96414e-06 0.0005 1.46608e-07 
263 1 0.0251648 0.0161401 0.00668662 -2.27378e-14 -4.66215e-14 -1.52821e-13 -3.97047e-22 4.76456e-22 0 0.0005 1.46608e-07 
264 1 0.132587 0.0174113 0.00845204 -6.94353e-05 0.0226072 -0.0171302 1.29933e-09 2.83451e-08 -1.01902e-07 0.0005 1.46608e-07 
266 1 0.029475 0.0159363 0.0085198 0.00076162 -0.0161546 0.0170939 -6.11616e-07 1.24758e-06 -1.49278e-06 0.0005 1.46608e-07 
267 1 0.0225484 0.0187074 0.0159293 -3.6665e-10 0.0240264 0.00179595 -1.23038e-15 1.33748e-09 -1.87892e-08 0.0005 1.46608e-07 
270 1 0.0331939 0.0192111 0.0158047 0.00174902 0.0127749 0.00213358 5.46491e-07 2.17105e-06 -9.24368e-08 0.0005 1.46608e-07 
271 1 0.0187325 0.0212657 0.00779788 0.0012748 -0.0189313 -0.0115319 -1.70505e-07 -7.49197e-08 -1.57258e-07 0.0005 1.46608e-07 
272 1 0.0216176 0.0233091 0.0148424 -0.00500442 -0.00379806 7.41479e-05 0 0 -1.43822e-06 0.0005 1.46608e-07 
273 1 0.0267894 0.0207146 0.0154953 0.00350645 0.00587753 0.000548896 -2.00717e-09 -2.2891e-08 -3.51138e-08 0.0005 1.46608e-07 
275 1 0.0158342 0.0166471 0.0152565 0.00170463 0.0158383 0.0100931 -3.93179e-09 3.59331e-08 -1.27271e-08 0.0005 1.46608e-07 
276 1 0.0261874 0.0190212 0.0173473 4.85448e-05 0.000125962 -8.1618e-05 -3.00419e-09 -1.68659e-08 7.10617e-11 0.0005 1.46608e-07 
280 1 0.0218624 0.0166157 0.015235 0.00296071 0.00439179 0.00435774 -1.05092e-07 3.22041e-08 -1.25946e-07 0.0005 1.46608e-07 
283 1 0.0308499 0.0192441 0.00573695 2.05266e-14 -2.0591e-16 2.40795e-13 1.85288e-22 1.00248e-20 0 0.0005 1.46608e-07 
284 1 0.0305656 0.0206896 0.00748215 0.000119833 -0.0217236 -0.00763435 1.60169e-09 -1.35024e-08 9.08355e-09 0.0005 1.46608e-07 
288 1 0.0279199 0.0161955 0.0146957 0.000578255 0.0116837 0.0118722 1.4907e-06 -8.19745e-07 -1.62632e-06 0.0005 1.46608e-07 
289 1 0.0284458 0.0149894 0.0125986 0.000433908 0.00576845 0.0199347 -5.09363e-09 5.51861e-09 -2.96825e-08 0.0005 1.46608e-07 
290 1 0.0295711 0.0165146 0.00799964 0.00085139 -0.0183867 0.0135218 -3.34637e-06 -1.83207e-07 -2.17881e-07 0.0005 1.46608e-07 
292 1 0.0211634 0.0196458 0.0159048 -1.69881e-09 0.0238815 -0.00328541 -4.96286e-15 -2.6311e-09 -1.86637e-08 0.0005 1.46608e-07 
295 1 0.0137043 0.0220192 0.0158609 0.00979774 0.0158452 -0.00905592 2.13406e-09 2.03583e-09 -5.93264e-09 0.0005 1.46608e-07 
296 1 0.0171405 0.0240975 0.0139023 -0.0120565 -0.0126389 0.0720718 0 0 -1.43822e-06 0.0005 1.46608e-07 
297 1 0.0328021 0.0230898 0.0129907 0.00121291 0.0115567 -0.0270137 -1.97491e-07 9.26592e-08 -7.50576e-08 0.0005 1.46608e-07 
300 1 0.0150905 0.0228141 0.0138956 0.00816208 0.00343314 -0.00610651 2.63095e-07 -4.77965e-07 -2.19066e-06 0.0005 1.46608e-07 
