ITEM: TIMESTEP
12000000
ITEM: NUMBER OF ATOMS
151
ITEM: BOX BOUNDS ff ff ff
-0.02 0.43
-0.02 0.09
-0.02 0.1
ITEM: ATOMS id type x y z vx vy vz fx fy fz radius mass 
1 1 0.0215146 0.0235102 0.0144775 0.0150341 -0.0193603 0.00711936 0 0 -1.43822e-06 0.0005 1.46608e-07 
2 1 0.0326927 0.0189714 0.0158161 0.00339014 0.0146574 0.00328941 2.24216e-06 -4.58554e-07 -1.02167e-06 0.0005 1.46608e-07 
3 1 0.0180463 0.0238267 0.0137523 -0.000758356 2.90689e-05 0.000323267 2.09032e-06 -3.59646e-07 -1.39494e-06 0.0005 1.46608e-07 
5 1 0.0345906 0.0150583 0.00990452 0.00206288 -0.00555077 0.0175616 -1.62233e-08 -7.86496e-09 4.03951e-08 0.0005 1.46608e-07 
6 1 0.0979164 0.019359 0.00568799 -3.20741e-15 4.38121e-15 1.21773e-13 1.25573e-19 1.8145e-20 2.75286e-21 0.0005 1.46608e-07 
7 1 0.0205732 0.0233671 0.0139546 -0.00175919 0.00146754 -0.0097397 1.54267e-06 -4.12082e-07 -4.23897e-06 0.0005 1.46608e-07 
8 1 0.0200337 0.0234526 0.0113576 0.00354248 -0.00241873 -0.0154429 -1.46728e-05 1.93069e-06 1.11645e-06 0.0005 1.46608e-07 
9 1 0.0282207 0.0147661 0.0112566 0.00149662 -0.000699519 0.0154178 1.73984e-06 1.63151e-06 -1.19905e-06 0.0005 1.46608e-07 
10 1 0.0231462 0.0232613 0.0146635 0.000192489 2.91322e-06 0.0114578 0 0 -1.43822e-06 0.0005 1.46608e-07 
11 1 0.0172879 0.0240361 0.0131352 1.93243e-05 -0.000791282 5.75071e-05 -9.66844e-08 5.58848e-08 -8.15986e-08 0.0005 1.46608e-07 
17 1 0.0556738 0.0206032 0.00597199 6.21824e-15 9.58505e-14 -2.04944e-13 -1.50104e-19 -1.10114e-20 -2.75286e-21 0.0005 1.46608e-07 
19 1 0.0289631 0.0169386 0.00627567 -1.71313e-14 5.85795e-14 1.4411e-13 -1.32243e-19 -7.65506e-20 1.54584e-20 0.0005 1.46608e-07 
22 1 0.0261387 0.02024 0.00595437 -2.2912e-09 -7.31593e-08 5.41698e-08 -3.07174e-11 2.32533e-10 -9.66058e-11 0.0005 1.46608e-07 
23 1 0.0323444 0.0206758 0.015416 0.000142555 0.0227887 -0.00974328 -6.90895e-10 3.30731e-09 -1.75432e-08 0.0005 1.46608e-07 
24 1 0.0271042 0.0199772 0.00601099 9.37841e-16 1.50972e-16 -1.5292e-14 -1.04556e-21 1.82443e-20 2.11758e-22 0.0005 1.46608e-07 
28 1 0.0194019 0.0244195 0.0135259 0.00914402 -0.00354485 -0.0106212 -1.68687e-07 -3.52138e-07 -1.01701e-06 0.0005 1.46608e-07 
29 1 0.0176548 0.0144244 0.0128801 -0.0310882 0.00306461 -0.00891812 0 0 -1.43822e-06 0.0005 1.46608e-07 
31 1 0.0306051 0.022592 0.00896869 0.000830195 -0.0136124 -0.0171405 1.679e-09 -1.92417e-08 9.95864e-09 0.0005 1.46608e-07 
32 1 0.0258072 0.0231876 0.0128751 3.90294e-05 0.00652414 -0.0136307 1.48205e-07 -2.06519e-08 6.6709e-10 0.0005 1.46608e-07 
33 1 0.0364417 0.0221153 0.00849637 0.00440698 -0.00575955 -0.00752956 1.41573e-05 1.80249e-06 1.6671e-05 0.0005 1.46608e-07 
38 1 0.057643 0.0189251 0.00583781 -3.64267e-15 -9.89831e-15 -2.3388e-13 -1.20272e-20 3.11285e-20 -6.35275e-22 0.0005 1.46608e-07 
48 1 0.0254094 0.0209168 0.0060552 -5.60431e-08 -1.04494e-07 -9.75833e-08 2.54914e-11 2.52829e-10 2.0239e-10 0.0005 1.46608e-07 
49 1 0.0966017 0.0221593 0.00668674 -1.58e-15 7.02795e-14 -2.0148e-13 -2.00442e-20 8.31151e-21 1.90582e-21 0.0005 1.46608e-07 
51 1 0.0252324 0.0212722 0.0162739 -0.00424 0.00586985 -0.00158033 -6.5447e-07 3.6859e-07 -3.92374e-10 0.0005 1.46608e-07 
53 1 0.0208587 0.0185973 0.00595288 1.7347e-14 -7.78402e-15 1.58781e-13 -8.20563e-22 -3.38813e-21 0 0.0005 1.46608e-07 
54 1 0.0620172 0.019644 0.00573735 3.97365e-15 1.96764e-14 1.40864e-13 1.8513e-19 -1.76236e-19 1.8423e-20 0.0005 1.46608e-07 
56 1 0.0526248 0.0173297 0.0061105 -2.55792e-17 -9.0642e-17 -1.36143e-15 -4.02341e-21 3.04402e-22 2.11758e-22 0.0005 1.46608e-07 
57 1 0.0141112 0.0223932 0.0144414 -0.000353224 -0.0013158 0.000298853 -1.02176e-07 2.36528e-07 -2.84542e-07 0.0005 1.46608e-07 
61 1 0.0219807 0.0176257 0.015725 5.34992e-09 0.0228816 0.00786376 2.38883e-11 6.87349e-09 -2.05308e-08 0.0005 1.46608e-07 
62 1 0.0309783 0.0170623 0.00646657 -1.71237e-14 5.8588e-14 1.44107e-13 8.08122e-20 5.96099e-20 -1.73642e-20 0.0005 1.46608e-07 
64 1 0.0276709 0.0190757 0.00600781 2.28432e-14 -2.18933e-16 2.67978e-13 2.64698e-23 5.33639e-20 2.11758e-22 0.0005 1.46608e-07 
65 1 0.0363197 0.0217765 0.00807708 0.00270848 -0.00558439 -0.00378962 -1.08752e-05 -1.86664e-06 -8.41741e-06 0.0005 1.46608e-07 
71 1 0.021946 0.0213951 0.0152726 -1.78782e-06 0.0206242 -0.0128207 -1.83373e-10 7.60441e-09 -2.71876e-08 0.0005 1.46608e-07 
74 1 0.0224277 0.0236309 0.0140589 -0.000267837 0.0011657 0.000791116 3.66363e-07 -3.02919e-07 5.0175e-07 0.0005 1.46608e-07 
75 1 0.0243173 0.0217378 0.00827941 0.000570551 -0.0190969 -0.014981 -3.09763e-09 -1.67639e-08 6.32921e-09 0.0005 1.46608e-07 
77 1 0.0204835 0.0215622 0.00636169 2.29214e-10 -7.79523e-10 -5.80047e-10 7.98896e-13 -1.42089e-12 -1.41604e-12 0.0005 1.46608e-07 
78 1 0.0292732 0.0171154 0.00761836 0.00108613 -0.0203893 0.00959618 -8.28607e-09 -1.09247e-07 9.7051e-08 0.0005 1.46608e-07 
80 1 0.0284893 0.014954 0.0102638 5.65854e-05 -0.00870294 0.0254947 -1.18212e-09 1.3898e-08 1.20816e-08 0.0005 1.46608e-07 
82 1 0.0215443 0.0193995 0.00591729 -1.81478e-14 8.13982e-15 -1.66091e-13 0 0 0 0.0005 1.46608e-07 
83 1 0.0206787 0.0243212 0.0137238 1.14724e-05 0.00109431 -0.000311103 2.89473e-06 -2.28615e-07 4.68369e-07 0.0005 1.46608e-07 
84 1 0.0314206 0.0233108 0.0123742 0.000888971 0.0043199 -0.0219357 -4.58988e-09 -1.85044e-08 -2.6203e-08 0.0005 1.46608e-07 
85 1 0.0277017 0.0215249 0.00794836 0.000126028 -0.0209174 -0.0128758 6.694e-09 -1.6773e-07 -1.02399e-07 0.0005 1.46608e-07 
86 1 0.0235232 0.0182302 0.00728808 0.000283184 -0.0248169 0.00463238 -1.38376e-09 -4.50657e-09 1.63527e-08 0.0005 1.46608e-07 
89 1 0.0195052 0.0233623 0.0127021 0.0020125 0.00612582 -0.0191018 8.61463e-07 -1.56887e-06 1.23655e-06 0.0005 1.46608e-07 
91 1 0.023197 0.0168244 0.00780567 0.00111369 -0.0194357 0.0123483 -4.53879e-06 -2.23626e-05 1.57393e-05 0.0005 1.46608e-07 
92 1 0.0316308 0.0229699 0.0132557 0.00018292 0.0112673 -0.0230368 -1.04804e-09 -1.11521e-08 -1.37294e-08 0.0005 1.46608e-07 
94 1 0.0796204 0.0197227 0.00580418 7.09888e-18 1.90641e-17 -8.15791e-17 2.64698e-23 5.29396e-23 -2.11758e-22 0.0005 1.46608e-07 
96 1 0.0340262 0.0148211 0.0122157 0.000441048 0.00147685 0.0195246 5.85125e-09 -1.60552e-08 -2.24924e-07 0.0005 1.46608e-07 
97 1 0.0214142 0.0229436 0.0136461 -0.00153816 0.00709319 -0.0130801 2.32775e-08 3.70033e-07 -2.14603e-06 0.0005 1.46608e-07 
99 1 0.0338693 0.0150815 0.0130882 0.000327322 0.00889954 0.0218784 9.73359e-09 2.91637e-09 -4.18636e-08 0.0005 1.46608e-07 
101 1 0.0223781 0.0148062 0.0106936 0.000334758 -0.0053207 0.0246403 -1.15543e-09 1.34614e-08 1.06698e-08 0.0005 1.46608e-07 
102 1 0.0786507 0.0194795 0.00578067 -3.22164e-18 -1.76908e-17 -8.20484e-17 1.32349e-22 0 2.11758e-22 0.0005 1.46608e-07 
104 1 0.0481607 0.0180669 0.00608584 9.44961e-15 -2.03073e-14 -2.10798e-13 7.618e-20 2.8455e-20 8.47033e-22 0.0005 1.46608e-07 
105 1 0.0296512 0.0189134 0.00718687 0.00111919 -0.0211851 0.000358891 -6.7361e-09 -5.22829e-09 1.19647e-08 0.0005 1.46608e-07 
106 1 0.0259514 0.0184326 0.00592502 -7.42432e-15 -1.1235e-15 1.20894e-13 1.32217e-20 3.03377e-20 1.05879e-21 0.0005 1.46608e-07 
108 1 0.105358 0.0186487 0.00585656 3.56635e-15 -6.01536e-15 5.30437e-14 1.67686e-20 7.43801e-21 2.11758e-22 0.0005 1.46608e-07 
109 1 0.021429 0.0223773 0.0144705 -0.000491952 0.0070731 -0.00775607 0 0 -1.43822e-06 0.0005 1.46608e-07 
110 1 0.082978 0.0202725 0.00621095 -7.5725e-16 -3.22559e-15 1.25259e-14 -9.72989e-19 1.85024e-19 -3.74812e-20 0.0005 1.46608e-07 
112 1 0.0219835 0.0154587 0.0141699 -0.00281874 0.000850556 0.00634943 0 0 -1.43822e-06 0.0005 1.46608e-07 
114 1 0.020265 0.0216719 0.0151 5.47679e-06 0.0200844 -0.0147842 2.83093e-10 2.27027e-08 -3.84395e-08 0.0005 1.46608e-07 
115 1 0.0178457 0.020276 0.00611885 -2.7153e-14 -1.09734e-14 2.23772e-13 -4.45222e-20 2.64698e-20 -4.44692e-21 0.0005 1.46608e-07 
116 1 0.00641715 0.00493523 0.0435188 4.50005e-16 5.85063e-16 -1.33389e-13 -3.25082e-22 8.20563e-22 0 0.0005 1.46608e-07 
118 1 0.0360976 0.0208381 0.0077091 0.0010762 -0.019268 -0.00923021 9.88393e-09 -1.85694e-09 2.4378e-08 0.0005 1.46608e-07 
121 1 0.0381912 0.0210757 0.0151235 0.00194489 0.00728377 -0.00505255 -1.26526e-08 3.0117e-08 2.26262e-08 0.0005 1.46608e-07 
124 1 0.0257144 0.0225531 0.0138968 5.51983e-05 0.0160481 -0.0209393 4.25587e-12 -1.0123e-08 -1.3882e-08 0.0005 1.46608e-07 
128 1 0.0303725 0.0219209 0.00823476 0.000276417 -0.0185241 -0.0173052 -6.04982e-10 -1.58175e-08 5.54806e-09 0.0005 1.46608e-07 
129 1 0.0269589 0.0179568 0.0156129 -0.000344298 0.0257974 0.00994179 -4.64527e-09 9.64945e-09 -1.05428e-08 0.0005 1.46608e-07 
131 1 0.0267892 0.0209972 0.0060315 -3.29287e-15 3.2028e-14 -8.30521e-14 2.24993e-22 0 0 0.0005 1.46608e-07 
132 1 0.0237989 0.0227481 0.0152292 0.00769956 -0.0048628 0.00561027 8.4638e-07 9.55404e-06 2.21055e-07 0.0005 1.46608e-07 
133 1 0.0608296 0.0183361 0.00595714 5.16454e-15 2.34444e-14 1.6783e-13 -1.1515e-19 3.93341e-20 -1.90582e-21 0.0005 1.46608e-07 
134 1 0.0238936 0.0198757 0.00732135 0.000963981 -0.0211449 -0.00686173 -5.97572e-09 -3.12243e-08 3.05797e-08 0.0005 1.46608e-07 
135 1 0.0149395 0.0227413 0.0139756 -0.000320035 -0.000312403 -0.00030899 -3.19613e-07 -3.483e-08 2.28832e-07 0.0005 1.46608e-07 
136 1 0.0214265 0.0162446 0.0149591 -3.43292e-05 0.0208246 0.0176475 -2.69353e-11 1.21585e-08 -1.49486e-08 0.0005 1.46608e-07 
138 1 0.0190197 0.0233158 0.0109182 0.000904432 -0.00379406 -0.0166634 3.50184e-07 2.61151e-07 1.42289e-06 0.0005 1.46608e-07 
139 1 0.0367564 0.0228273 0.00952462 0.000264904 -0.0114692 -0.0219564 -1.4987e-09 -1.70319e-08 -1.94609e-09 0.0005 1.46608e-07 
140 1 0.0206215 0.0239748 0.0127897 -0.00018348 -0.000531195 0.00109252 -1.20081e-06 1.18614e-06 1.13439e-07 0.0005 1.46608e-07 
142 1 0.0287926 0.0156024 0.00891419 0.00367431 -0.00457934 0.00914329 2.74448e-06 2.51547e-06 -4.19453e-06 0.0005 1.46608e-07 
143 1 0.0157865 0.0203553 0.00616068 -1.45997e-14 5.10401e-14 -1.60439e-13 1.10564e-19 -2.19276e-19 -7.96211e-20 0.0005 1.46608e-07 
144 1 0.0355879 0.0187761 0.0072585 4.08214e-05 -0.0263189 -0.000870116 1.64178e-09 -5.01946e-09 1.739e-08 0.0005 1.46608e-07 
145 1 0.0325587 0.0195511 0.0157739 0.00196728 0.022623 -0.00950433 -2.46644e-07 -1.6159e-07 -1.02247e-06 0.0005 1.46608e-07 
146 1 0.0204958 0.0148601 0.015503 0.0052927 -0.0329017 0.00493368 0 0 -1.43822e-06 0.0005 1.46608e-07 
147 1 0.0212314 0.0207013 0.00601527 1.10635e-14 -4.96188e-15 1.01251e-13 -3.49401e-21 6.4851e-22 4.23516e-22 0.0005 1.46608e-07 
148 1 0.0210425 0.0179618 0.0158074 3.82544e-11 0.0233525 0.0059352 3.22756e-16 4.67275e-09 -1.82486e-08 0.0005 1.46608e-07 
150 1 0.0244797 0.0221608 0.0157403 -0.0136379 0.0142719 -0.0112269 -4.0009e-09 1.2823e-09 -5.76368e-09 0.0005 1.46608e-07 
152 1 0.0259579 0.0217579 0.0147765 0.000968348 0.017692 -0.0154876 -6.44428e-09 2.06869e-09 -2.02351e-08 0.0005 1.46608e-07 
155 1 0.0277824 0.02126 0.0061266 -3.65182e-16 -3.92874e-14 9.04739e-14 -3.14577e-21 1.05879e-22 0 0.0005 1.46608e-07 
156 1 0.0214727 0.0216683 0.00648909 -4.84335e-15 -3.06576e-14 6.3129e-14 1.32349e-23 0 -2.11758e-22 0.0005 1.46608e-07 
157 1 0.0187328 0.0226563 0.00943115 0.00139066 -0.0126495 -0.0193048 -2.22968e-08 -6.16489e-08 -3.96123e-08 0.0005 1.46608e-07 
158 1 0.0302136 0.0211176 0.00769626 0.00071524 -0.0198711 -0.0100003 -7.32162e-09 -3.27839e-08 -3.38967e-10 0.0005 1.46608e-07 
164 1 0.0789382 0.0208204 0.0064142 3.792e-14 1.04942e-13 -1.9649e-13 -1.1255e-19 -4.4681e-20 -5.52689e-20 0.0005 1.46608e-07 
165 1 0.0359224 0.0200287 0.0074478 -0.000109877 -0.0243199 -0.00578623 1.76221e-09 -8.62423e-09 1.37737e-08 0.0005 1.46608e-07 
168 1 0.0228226 0.0151262 0.0135972 0.00405482 0.00337131 0.00857856 -1.6757e-06 -5.5237e-07 8.81788e-07 0.0005 1.46608e-07 
170 1 0.0266133 0.0193042 0.0158275 0.000381086 0.0240385 -0.00160258 -1.46214e-09 1.1339e-08 -1.56566e-08 0.0005 1.46608e-07 
171 1 0.0280301 0.0148553 0.012116 0.00170473 0.00481403 0.0187489 2.70904e-07 -3.80728e-07 2.22502e-06 0.0005 1.46608e-07 
173 1 0.023591 0.0209068 0.0163936 -0.00733004 0.0301671 -0.0117401 7.41176e-07 7.99178e-08 1.05404e-08 0.0005 1.46608e-07 
174 1 0.0192626 0.0234336 0.0117585 0.0020072 0.00110834 -0.0181914 -5.61312e-06 6.46931e-06 -2.48863e-06 0.0005 1.46608e-07 
182 1 0.0349915 0.0162739 0.00821475 0.0012467 -0.0142968 0.0109254 1.11194e-08 -2.40926e-09 5.59173e-08 0.0005 1.46608e-07 
187 1 0.0218879 0.0149713 0.0132777 0.00166879 0.00767036 0.016141 -6.7967e-07 -9.55982e-08 -4.2037e-07 0.0005 1.46608e-07 
189 1 0.0232451 0.0166136 0.0152195 4.53672e-05 0.0225344 0.0147417 5.73638e-10 1.17094e-08 -2.09899e-08 0.0005 1.46608e-07 
193 1 0.019738 0.02298 0.0135929 0.000479394 0.00974174 -0.0189209 -6.23256e-07 7.68127e-07 -2.24822e-06 0.0005 1.46608e-07 
194 1 0.0189502 0.0139996 0.0129711 -0.0011585 0.00131698 -0.00190824 3.26121e-07 5.13211e-08 7.41991e-08 0.0005 1.46608e-07 
199 1 0.0193727 0.0232188 0.01036 0.00240695 0.00113364 -0.00573723 -7.84039e-08 5.71997e-08 3.63852e-07 0.0005 1.46608e-07 
203 1 0.0238106 0.0197423 0.00580665 -1.57602e-14 -2.47658e-15 2.57081e-13 -4.09355e-20 1.5884e-19 -8.47033e-22 0.0005 1.46608e-07 
207 1 0.0173108 0.0234721 0.0143295 -0.00116423 5.4891e-05 0.00107591 1.29367e-07 3.90791e-07 -1.19122e-06 0.0005 1.46608e-07 
209 1 0.0265521 0.0210554 0.0152871 -0.000651706 0.00448395 0.00206558 1.86162e-07 -9.54511e-08 1.11161e-07 0.0005 1.46608e-07 
211 1 0.0179555 0.014618 0.0119444 -0.000939384 0.000261349 -0.000518929 0 0 -1.43822e-06 0.0005 1.46608e-07 
213 1 0.0186221 0.0241061 0.012984 -0.000394361 8.74764e-05 -0.000284123 4.31617e-07 -4.0829e-08 -1.18159e-06 0.0005 1.46608e-07 
214 1 0.0179626 0.0202476 0.00735832 0.00153088 -0.0197488 -0.00519448 -1.48486e-08 -1.14745e-07 9.51596e-09 0.0005 1.46608e-07 
218 1 0.0245343 0.0206019 0.0165255 -0.0134779 0.0130688 -0.00540369 -7.47826e-07 -5.84275e-07 -2.34308e-07 0.0005 1.46608e-07 
221 1 0.0150736 0.023302 0.0147926 6.22232e-05 -7.18584e-05 -0.000309013 -3.04964e-07 -1.348e-07 1.66726e-07 0.0005 1.46608e-07 
222 1 0.0223838 0.0181052 0.00622395 -1.18276e-15 2.57273e-15 9.39051e-15 1.47013e-19 5.82335e-21 1.69407e-20 0.0005 1.46608e-07 
226 1 0.050189 0.0178786 0.0061193 4.79609e-16 1.72246e-15 2.58614e-14 9.09237e-21 -1.65436e-21 0 0.0005 1.46608e-07 
228 1 0.0165579 0.0238542 0.0137937 -0.00045606 -0.000530941 -4.23487e-05 -2.85548e-07 3.67064e-07 -1.30653e-07 0.0005 1.46608e-07 
230 1 0.00243883 0.0254703 0.0435188 9.7491e-317 -9.6804e-317 4.97437e-14 0 0 0 0.0005 1.46608e-07 
231 1 0.0768783 0.0191645 0.00578908 2.8152e-15 -1.76436e-14 -6.77269e-14 -3.55317e-19 -1.48231e-20 -1.03762e-20 0.0005 1.46608e-07 
232 1 0.0222517 0.0167047 0.015286 5.69398e-05 0.0231725 0.0141296 8.30674e-10 6.14581e-09 -1.67159e-08 0.0005 1.46608e-07 
235 1 0.022403 0.0190843 0.015946 2.53344e-10 0.0241159 -0.000324624 4.82951e-16 -3.99094e-10 -1.8858e-08 0.0005 1.46608e-07 
237 1 0.0199314 0.0145423 0.0143744 -0.0775381 0.00836844 -0.020121 0 0 -1.43822e-06 0.0005 1.46608e-07 
238 1 0.0216155 0.0238869 0.0135384 0.00106733 0.00259318 -7.50077e-05 1.27122e-06 -4.27564e-07 -2.2442e-07 0.0005 1.46608e-07 
239 1 0.0292823 0.0172818 0.00860429 0.00167963 -0.00697399 0.0072932 2.98048e-08 -2.88989e-07 4.32659e-07 0.0005 1.46608e-07 
240 1 0.0183572 0.0233461 0.0145725 0.00511995 -0.00204065 -0.00355999 0 0 -1.43822e-06 0.0005 1.46608e-07 
241 1 0.0303407 0.018037 0.00599387 -3.35761e-15 1.06754e-14 2.63266e-14 1.0122e-19 9.12678e-20 -2.56227e-20 0.0005 1.46608e-07 
242 1 0.0300348 0.016697 0.00650218 1.2064e-14 -4.09536e-14 -1.00708e-13 -2.64698e-23 -6.67038e-21 2.75286e-21 0.0005 1.46608e-07 
243 1 0.0198509 0.0208114 0.0061715 2.33468e-10 -9.42288e-10 1.20304e-10 1.42261e-12 -2.47414e-12 3.88746e-13 0.0005 1.46608e-07 
250 1 0.032024 0.0217495 0.0148496 0.000246321 0.0219459 -0.015261 2.08813e-10 -4.05994e-09 -1.68723e-08 0.0005 1.46608e-07 
252 1 0.0334614 0.0158358 0.0143945 0.000709163 0.0144002 0.0185439 1.52461e-08 -6.58617e-08 -7.45615e-08 0.0005 1.46608e-07 
258 1 0.0251649 0.0199292 0.00589157 -1.40984e-14 -2.27298e-15 2.29842e-13 0 9.14862e-22 0 0.0005 1.46608e-07 
259 1 0.0354265 0.0177285 0.00739573 0.00202164 -0.0173499 0.00731313 4.00975e-06 1.51062e-05 -4.57203e-06 0.0005 1.46608e-07 
260 1 0.0213605 0.0234024 0.0124065 -0.00279045 4.25151e-05 -0.0032939 -1.26405e-08 1.59575e-08 1.31857e-08 0.0005 1.46608e-07 
261 1 0.0563355 0.0188737 0.00586029 -2.85249e-16 -6.29148e-16 -1.57522e-14 1.42761e-19 -3.95723e-21 -2.11758e-21 0.0005 1.46608e-07 
262 1 0.0308561 0.02302 0.00973913 0.000710157 -0.00948545 -0.0215141 7.7422e-09 -7.32502e-09 6.78528e-08 0.0005 1.46608e-07 
263 1 0.0251648 0.0161401 0.00668662 -2.27383e-14 -4.66214e-14 -1.52821e-13 3.04402e-21 -1.37643e-21 0 0.0005 1.46608e-07 
264 1 0.132522 0.0175111 0.00841521 -2.53722e-06 -0.0203966 0.0101557 2.48512e-10 -1.01965e-07 7.2961e-08 0.0005 1.46608e-07 
266 1 0.0331578 0.0170977 0.0152813 0.000613075 0.0205407 0.0095979 -7.37072e-09 2.82541e-08 1.26618e-09 0.0005 1.46608e-07 
267 1 0.0209002 0.01408 0.0133003 -0.000621704 0.00072432 -0.00187548 1.81581e-07 5.27959e-08 -1.21928e-06 0.0005 1.46608e-07 
270 1 0.0370517 0.0233502 0.0108183 0.00135901 -0.0025492 -0.0162574 2.49028e-09 -4.33941e-09 1.12607e-08 0.0005 1.46608e-07 
271 1 0.0157256 0.0233561 0.0140364 -0.000432787 -0.000354938 -0.00039269 9.85163e-08 -3.77137e-07 2.48015e-07 0.0005 1.46608e-07 
272 1 0.0231549 0.0148987 0.0145124 0.00544764 0.00130038 0.00718526 -1.78334e-07 5.54552e-07 2.32851e-06 0.0005 1.46608e-07 
273 1 0.0299708 0.0201878 0.0073787 0.00028711 -0.0237626 -0.00631651 -2.50225e-09 -1.11899e-08 1.19552e-08 0.0005 1.46608e-07 
275 1 0.0199498 0.0140147 0.0129964 -0.000645825 0.00107275 -0.00256171 -2.64167e-07 -1.24427e-07 -2.60904e-07 0.0005 1.46608e-07 
276 1 0.0218216 0.0142897 0.0140063 0.00108767 -0.00288107 0.00584893 -2.62346e-07 2.35174e-07 -7.21978e-07 0.0005 1.46608e-07 
283 1 0.0308499 0.0192441 0.00573695 2.05265e-14 -2.05797e-16 2.40795e-13 3.44107e-22 -2.02417e-20 -2.11758e-22 0.0005 1.46608e-07 
284 1 0.0342813 0.0148582 0.0111336 0.00175792 -0.00101098 0.02069 -1.45471e-08 1.00098e-08 5.08753e-08 0.0005 1.46608e-07 
288 1 0.031171 0.0233774 0.0114501 0.000334683 0.000194596 -0.0247871 -1.89277e-09 -1.34482e-08 -1.20724e-08 0.0005 1.46608e-07 
289 1 0.0318461 0.022385 0.0142122 0.000742463 0.0140419 -0.0183635 -8.90543e-09 2.5897e-09 -2.8811e-08 0.0005 1.46608e-07 
290 1 0.032879 0.0182106 0.0156993 0.00106587 0.0219779 0.00512807 5.05809e-07 1.38115e-06 -2.75268e-07 0.0005 1.46608e-07 
292 1 0.0201378 0.0229231 0.0150188 0.0299145 0.00482039 -0.00671754 0 0 -1.43822e-06 0.0005 1.46608e-07 
295 1 0.0207103 0.0194363 0.015937 3.70199e-10 0.0240965 -0.00187517 9.12572e-16 -1.25099e-09 -1.88721e-08 0.0005 1.46608e-07 
296 1 0.0238092 0.0191672 0.0072043 -0.000462926 -0.0230421 -0.000783047 3.59914e-08 5.2338e-08 -1.35664e-08 0.0005 1.46608e-07 
297 1 0.0349429 0.014945 0.0126479 0.000362194 0.00745699 0.0214612 -3.43881e-09 1.66501e-08 6.24341e-09 0.0005 1.46608e-07 
300 1 0.0201987 0.0234048 0.0121961 0.00878527 0.00476728 -0.0126368 4.26149e-06 -2.98998e-06 -9.2321e-07 0.0005 1.46608e-07 
