ITEM: TIMESTEP
3000000
ITEM: NUMBER OF ATOMS
284
ITEM: BOX BOUNDS ff ff ff
-0.02 0.43
-0.02 0.09
-0.02 0.1
ITEM: ATOMS id type x y z vx vy vz fx fy fz radius mass 
1 1 0.0219519 0.0241236 0.0143263 7.77012e-05 0.000521716 -0.000622483 -2.22111e-07 -5.34714e-07 5.72353e-07 0.0005 1.46608e-07 
2 1 0.0237811 0.015295 0.0150517 0.00632936 0.00428553 0.00597644 -3.9321e-08 -3.11962e-08 -2.92577e-08 0.0005 1.46608e-07 
3 1 0.0232961 0.0231834 0.0155806 -5.57809e-05 0.000430142 -0.000128497 -6.04666e-07 1.32857e-06 -5.21878e-07 0.0005 1.46608e-07 
4 1 0.0192251 0.0163934 0.00807813 0.000527679 -0.00938632 0.0050943 8.33126e-07 3.88289e-08 3.83663e-07 0.0005 1.46608e-07 
5 1 0.0231377 0.0223729 0.0144062 0.00224102 0.00124999 0.000103328 5.10298e-07 1.60386e-06 -1.28332e-06 0.0005 1.46608e-07 
6 1 0.0179518 0.0148904 0.0105762 -4.73306e-05 -0.00679409 0.025719 -2.62757e-09 1.34907e-08 9.11655e-09 0.0005 1.46608e-07 
7 1 0.0147358 0.0195979 0.0167497 -0.00029319 0.0290058 -0.00291579 4.41637e-07 1.33655e-07 -1.82066e-07 0.0005 1.46608e-07 
8 1 0.0186858 0.0146133 0.0119523 0.00329602 -0.00191111 0.00297294 -2.97188e-08 3.85135e-07 -1.25888e-06 0.0005 1.46608e-07 
9 1 0.0208985 0.0239904 0.0146594 0.000393226 0.000200721 -0.000630448 -1.88153e-06 -5.79973e-08 -5.8377e-07 0.0005 1.46608e-07 
10 1 0.0155191 0.0236507 0.0147964 0.00884473 0.00469013 -0.00309303 0 0 -1.43822e-06 0.0005 1.46608e-07 
11 1 0.0193516 0.0187012 0.00715686 0.000384746 -0.0235329 0.00320553 -2.51564e-06 -5.73678e-07 8.56376e-07 0.0005 1.46608e-07 
12 1 0.0195448 0.0245252 0.0135729 -0.000188303 0.000544952 -0.000822521 -3.05412e-07 1.98738e-08 5.42803e-08 0.0005 1.46608e-07 
13 1 0.0171331 0.0240837 0.0144351 0.000763604 -0.000543759 0.00202387 2.90103e-06 1.96861e-06 -1.39391e-06 0.0005 1.46608e-07 
14 1 0.0198094 0.00968126 0.0271607 -0.0256835 0.15043 -0.385922 0 0 -1.43822e-06 0.0005 1.46608e-07 
15 1 0.0222084 0.0220309 0.0159035 -0.00140718 0.0167969 -0.0195229 0 0 -1.43822e-06 0.0005 1.46608e-07 
16 1 0.017683 0.0146279 0.0120343 0.0031783 0.000845824 0.0163574 -9.61884e-07 -1.68756e-06 8.67723e-07 0.0005 1.46608e-07 
17 1 0.0529704 0.0229354 0.00731655 7.11226e-15 -5.2112e-14 9.68292e-14 1.30288e-18 -7.84564e-20 -1.1075e-19 0.0005 1.46608e-07 
18 1 0.0228899 0.0164669 0.0151146 0.00407213 0.00679293 0.005049 -3.34677e-08 1.20591e-07 9.57641e-08 0.0005 1.46608e-07 
19 1 0.0199041 0.0239358 0.014412 0.00126997 -0.000710868 0.00431395 -9.41452e-06 1.41237e-06 4.9602e-06 0.0005 1.46608e-07 
20 1 0.0234494 0.0149185 0.012764 0.000708606 0.00474836 0.0160591 2.52591e-06 -7.19907e-06 -1.73769e-05 0.0005 1.46608e-07 
22 1 0.0186062 0.0170635 0.0154818 -2.15893e-10 0.021518 0.0109518 -3.90732e-14 8.74194e-09 -1.67451e-08 0.0005 1.46608e-07 
23 1 0.0155309 0.0223379 0.0146738 0.00248403 0.00433096 -0.00712998 -3.5572e-06 4.56306e-06 -4.95224e-06 0.0005 1.46608e-07 
24 1 0.0197078 0.0241012 0.0123237 -0.000160557 0.00501453 0.00282801 -2.93565e-08 -2.66342e-08 5.63673e-07 0.0005 1.46608e-07 
25 1 0.018824 0.0237821 0.0175487 0.00588046 0.00358874 0.00145897 0 0 -1.43822e-06 0.0005 1.46608e-07 
26 1 0.0228197 0.0226415 0.0166813 -0.000669627 0.000859985 0.00419598 0 0 -1.43822e-06 0.0005 1.46608e-07 
27 1 0.0236235 0.0147466 0.0118182 0.00247075 0.000626136 0.0170606 5.97617e-08 4.3124e-07 -1.62139e-06 0.0005 1.46608e-07 
28 1 0.0166942 0.0224971 0.0174598 0.00531538 0.000560527 0.00565056 0 0 -1.43822e-06 0.0005 1.46608e-07 
29 1 0.0178136 0.0219084 0.015938 0.00153623 0.00564179 0.000697981 5.67912e-06 -8.75684e-06 6.58649e-06 0.0005 1.46608e-07 
31 1 0.025514 0.0208805 0.0164278 -0.00455427 0.0108161 -0.00261646 1.79413e-07 1.35991e-06 -6.00511e-07 0.0005 1.46608e-07 
32 1 0.0220703 0.0213505 0.0177957 -0.0176615 -0.0484049 -0.0383254 0 0 -1.43822e-06 0.0005 1.46608e-07 
33 1 0.0264684 0.0231594 0.0101694 0.000929684 -0.00644954 -0.0198398 4.02222e-09 -3.21855e-09 1.81112e-08 0.0005 1.46608e-07 
34 1 0.017669 0.0240757 0.0128923 0.000755568 0.00259886 -0.00168765 -9.56814e-07 -3.76577e-07 -1.73385e-06 0.0005 1.46608e-07 
35 1 0.0242585 0.0154367 0.00916412 -0.000707309 -0.0141632 0.0245716 -3.50188e-08 -9.19066e-08 7.75583e-08 0.0005 1.46608e-07 
36 1 0.0216591 0.0234418 0.0125695 -0.00325768 0.000100985 -0.0042168 8.44937e-07 -2.44624e-07 4.77116e-07 0.0005 1.46608e-07 
37 1 0.0234143 0.0231068 0.0147031 0.000621057 0.000606606 0.000128485 -3.42199e-07 9.46223e-07 -1.16378e-06 0.0005 1.46608e-07 
38 1 0.0218226 0.0212158 0.0154554 0.000951233 0.0205852 -0.00949019 5.08632e-07 -1.94259e-06 -8.0406e-06 0.0005 1.46608e-07 
39 1 0.0239448 0.0172998 0.0173428 0.0885572 -0.0846709 0.115218 0 0 -1.43822e-06 0.0005 1.46608e-07 
40 1 0.0239257 0.0148596 0.0105626 0.00154913 -0.00456084 0.0201105 2.98571e-09 1.43099e-08 1.9953e-08 0.0005 1.46608e-07 
41 1 0.0228501 0.0230281 0.0134428 -6.01561e-05 0.000855546 -0.000713234 5.65578e-07 -5.40143e-07 6.60196e-07 0.0005 1.46608e-07 
42 1 0.0161426 0.0231286 0.0169079 0.00120604 -0.000665307 0.00090107 1.02157e-05 -2.44745e-06 -6.81511e-06 0.0005 1.46608e-07 
43 1 0.0162598 0.0237481 0.0140394 -0.00707655 -0.00691446 0.00164131 0 0 -1.43822e-06 0.0005 1.46608e-07 
44 1 0.0209299 0.0225748 0.00908962 0.000374407 -0.00193408 -0.00264798 9.49331e-09 -8.09275e-09 -3.02923e-08 0.0005 1.46608e-07 
45 1 0.0241792 0.0226048 0.0160513 -0.0017673 0.0107572 -0.00717919 -2.15871e-06 9.9152e-06 -6.64911e-06 0.0005 1.46608e-07 
46 1 0.0162758 0.019461 0.0161536 0.011385 0.0126086 0.013399 2.77899e-06 1.73206e-06 7.47029e-06 0.0005 1.46608e-07 
48 1 0.0184391 0.0149735 0.0132695 0.00916802 0.00196592 0.00219016 7.82644e-07 7.59085e-07 3.27558e-07 0.0005 1.46608e-07 
49 1 0.0966017 0.0221593 0.00668674 -3.35197e-16 7.02618e-14 -2.01495e-13 -8.93534e-19 9.86793e-20 3.83282e-20 0.0005 1.46608e-07 
50 1 0.0204453 0.0152238 0.0150982 -0.00681252 0.0032428 0.00593063 1.00187e-07 -1.98156e-07 -1.52642e-07 0.0005 1.46608e-07 
51 1 0.0168487 0.0166244 0.0152227 0.00333587 0.0117116 0.00711969 4.12087e-07 -2.92706e-07 -3.7471e-07 0.0005 1.46608e-07 
53 1 0.0263034 0.0229059 0.00948535 0.00252281 -0.00609156 -0.0127866 1.03703e-08 -2.09007e-09 2.25421e-08 0.0005 1.46608e-07 
54 1 0.0226739 0.0173609 0.0156102 -9.97189e-06 0.0223058 0.00914277 2.4731e-08 1.94075e-08 -1.34763e-08 0.0005 1.46608e-07 
56 1 0.017931 0.020431 0.0169814 0.00688186 0.00369806 -0.0052677 -1.45448e-05 1.86351e-06 1.18676e-05 0.0005 1.46608e-07 
57 1 0.0232122 0.0194953 0.0160839 0.00130899 0.0136158 0.00392022 4.39989e-06 2.4136e-06 4.1566e-06 0.0005 1.46608e-07 
58 1 0.0231881 0.022225 0.0158437 0.00300459 0.000425201 0.00123034 -6.59005e-06 5.02493e-06 1.06773e-05 0.0005 1.46608e-07 
59 1 0.0172799 0.0154383 0.0140921 0.00377955 -0.0191528 -0.0292989 -3.75584e-08 -3.9633e-07 -5.33126e-07 0.0005 1.46608e-07 
60 1 0.0158296 0.0144948 0.0141556 0.00104326 -0.00070767 -0.000136351 6.81296e-09 -1.96849e-08 2.51157e-08 0.0005 1.46608e-07 
61 1 0.0202246 0.0146811 0.0173231 0.0395657 -0.00699498 0.00742208 0 0 -1.43822e-06 0.0005 1.46608e-07 
62 1 0.0229688 0.015741 0.0168364 -0.0490599 -0.0438293 -0.0143392 0 0 -1.43822e-06 0.0005 1.46608e-07 
63 1 0.0257041 0.017788 0.0166188 -0.00718562 -0.00259915 0.000571265 0 0 -1.43822e-06 0.0005 1.46608e-07 
64 1 0.0238033 0.0209923 0.0156145 0.00483282 0.00885129 0.00166472 -3.26266e-06 9.96167e-06 -4.77435e-06 0.0005 1.46608e-07 
65 1 0.0254018 0.0197566 0.00723861 -3.10339e-05 -0.0251692 -0.00603461 -7.03907e-10 -5.48003e-09 1.25773e-08 0.0005 1.46608e-07 
66 1 0.0225582 0.022876 0.0150207 0.000475978 0.00216733 -0.00198654 6.10891e-07 5.80859e-07 4.4711e-07 0.0005 1.46608e-07 
67 1 0.0144303 0.0232114 0.0104389 0.00258464 -0.00021647 -0.00576246 -1.54805e-05 1.17453e-05 8.04536e-06 0.0005 1.46608e-07 
68 1 0.0203586 0.0229828 0.00973717 0.000782002 -0.0084305 -0.0178489 -2.18078e-08 -5.2053e-08 -6.98071e-08 0.0005 1.46608e-07 
69 1 0.0223857 0.0210222 0.0164223 0.00700682 0.0191343 -0.000581587 -2.05849e-06 -2.80598e-06 -1.9175e-06 0.0005 1.46608e-07 
71 1 0.0192491 0.0225749 0.0164097 0.00705691 -0.000989083 0.00718271 -2.11621e-06 2.20975e-06 -6.47027e-07 0.0005 1.46608e-07 
72 1 0.0172957 0.023885 0.0163217 -0.00281011 -0.00203811 -0.0041857 3.84566e-07 -4.07367e-07 -9.40699e-07 0.0005 1.46608e-07 
73 1 0.0189234 0.024123 0.014316 -0.0149585 -0.0001266 -0.00308209 0 0 -1.43822e-06 0.0005 1.46608e-07 
74 1 0.0184339 0.0238933 0.0132931 4.37495e-05 -0.00153791 -0.000731437 -2.65873e-07 9.79059e-08 -5.29655e-07 0.0005 1.46608e-07 
75 1 0.0244716 0.0222615 0.0155046 0.000449075 0.00231852 0.000927566 8.21391e-08 -3.97754e-06 4.28441e-06 0.0005 1.46608e-07 
76 1 0.0167832 0.0237234 0.0131828 0.00201221 0.00128301 -0.00251423 -4.11101e-06 -1.19191e-05 -1.5144e-05 0.0005 1.46608e-07 
77 1 0.0272878 0.0225996 0.0138002 -7.04557e-05 0.0152252 -0.0213736 -1.98437e-09 -9.40477e-09 -1.38283e-08 0.0005 1.46608e-07 
78 1 0.0208876 0.0237975 0.0130847 0.00277276 0.00514616 -0.00483447 4.64782e-07 -4.05488e-07 3.7433e-07 0.0005 1.46608e-07 
79 1 0.0200741 0.0223858 0.00880223 0.00102887 -0.0105199 -0.014907 -4.99162e-10 4.04857e-08 6.84021e-08 0.0005 1.46608e-07 
80 1 0.0224722 0.0183202 0.0158863 -0.00137313 0.0182295 0.00334102 1.55676e-07 2.75654e-07 -6.01272e-07 0.0005 1.46608e-07 
81 1 0.0377354 0.0277253 0.055163 0.115848 0.0482135 -0.388886 0 0 -1.43822e-06 0.0005 1.46608e-07 
82 1 0.0196827 0.0218215 0.0169604 0.0134017 -0.000981694 0.00172945 -5.94954e-06 -1.87086e-06 3.66319e-06 0.0005 1.46608e-07 
83 1 0.0175504 0.0271685 0.0239594 -0.0898962 -0.00241999 0.0149876 0 0 -1.43822e-06 0.0005 1.46608e-07 
84 1 0.0190915 0.0138842 0.0131627 0.0182929 0.00187592 -0.00241034 7.36154e-07 -8.53986e-07 -8.20261e-07 0.0005 1.46608e-07 
85 1 0.0189629 0.0178256 0.00738622 0.000526053 -0.012784 0.00332833 3.56597e-07 -4.2926e-07 2.09632e-07 0.0005 1.46608e-07 
86 1 0.018421 0.0159434 0.00848127 0.000474366 -0.0166523 0.0175434 -4.08062e-09 1.58606e-09 1.98501e-08 0.0005 1.46608e-07 
87 1 0.0210402 0.0232437 0.0124619 -0.0108675 0.00354771 -0.00561299 2.62187e-06 -1.4168e-07 -1.11566e-06 0.0005 1.46608e-07 
88 1 0.0220302 0.0202765 0.0158566 0.000462109 0.0235784 -0.0047245 3.07092e-06 2.23628e-06 -3.31224e-06 0.0005 1.46608e-07 
89 1 0.0190733 0.0233863 0.0156724 -0.00127591 -0.00206781 0.00490102 3.12469e-06 3.85743e-06 7.46532e-06 0.0005 1.46608e-07 
90 1 0.0191302 0.0190756 0.0172567 0.0202072 -0.0603371 0.031097 0 0 -1.43822e-06 0.0005 1.46608e-07 
91 1 0.0196678 0.0208874 0.00763264 0.00215063 -0.0192362 -0.00771433 7.38949e-09 3.93606e-08 3.317e-08 0.0005 1.46608e-07 
92 1 0.0201167 0.0230277 0.0162089 0.0052575 0.000311454 0.00389931 4.80071e-06 -5.00033e-06 -3.97058e-06 0.0005 1.46608e-07 
94 1 0.0188961 0.0171219 0.00765165 0.000886092 -0.0132713 0.0071803 -8.86736e-07 -1.58849e-07 2.12801e-09 0.0005 1.46608e-07 
95 1 0.0222394 0.019312 0.0160167 0.000345952 0.0232763 0.000336504 -3.37302e-07 1.19873e-05 1.07285e-06 0.0005 1.46608e-07 
96 1 0.0235923 0.0217754 0.0150477 0.00570778 0.0073255 0.000735323 -5.96452e-06 4.84408e-06 -1.583e-05 0.0005 1.46608e-07 
97 1 0.0190298 0.0149301 0.0148165 0.0274922 -0.0298328 -0.106849 0 0 -1.43822e-06 0.0005 1.46608e-07 
98 1 0.0166072 0.0152658 0.015724 0.019037 -0.00386719 -0.0210383 2.29291e-07 -1.61896e-07 -7.83074e-07 0.0005 1.46608e-07 
99 1 0.0228051 0.0213208 0.0154359 0.00246753 0.0115149 -0.00224503 6.9016e-07 2.18259e-06 -1.37007e-05 0.0005 1.46608e-07 
100 1 0.0252475 0.0168431 0.0162471 0.000943422 0.0183489 0.00882319 -3.91148e-08 1.39184e-07 5.29647e-08 0.0005 1.46608e-07 
101 1 0.0234122 0.0202515 0.0167883 0.00473577 0.0139735 0.00731137 0 0 -1.43822e-06 0.0005 1.46608e-07 
102 1 0.0242577 0.0190964 0.0165293 0.020633 0.0103387 -0.00430838 0 0 -1.43822e-06 0.0005 1.46608e-07 
103 1 0.017209 0.016228 0.0160671 0.0182248 -0.0157424 -0.0126684 -1.10626e-07 -2.52129e-07 -1.51373e-07 0.0005 1.46608e-07 
104 1 0.0173905 0.0181459 0.0158486 0.00629279 0.000661605 0.00038693 1.15649e-06 1.28477e-06 3.23078e-07 0.0005 1.46608e-07 
105 1 0.0210552 0.0180792 0.015783 1.2477e-06 0.0260939 0.0059213 6.5294e-13 5.28395e-09 -2.32915e-08 0.0005 1.46608e-07 
106 1 0.0183925 0.0222866 0.0168356 0.00319033 0.00274765 0.000285747 -3.59452e-07 -4.60722e-06 1.81899e-06 0.0005 1.46608e-07 
107 1 0.0227348 0.0236164 0.0143436 0.000163589 0.000266813 -0.000760263 2.44801e-07 -9.74659e-08 2.43282e-07 0.0005 1.46608e-07 
108 1 0.105358 0.0186487 0.00585656 3.52354e-15 -6.05624e-15 5.3042e-14 -1.5645e-19 -1.00188e-19 -1.05879e-21 0.0005 1.46608e-07 
109 1 0.0176948 0.0139954 0.0135468 0.00171814 0.00789324 -0.0110775 1.70998e-06 -4.39434e-06 6.75689e-06 0.0005 1.46608e-07 
110 1 0.0258732 0.0217439 0.00823211 0.000240536 -0.019175 -0.0158249 -2.09367e-09 -1.7163e-08 6.82257e-09 0.0005 1.46608e-07 
111 1 0.0175174 0.0181563 0.0168407 0.0107782 -0.00162835 -0.0003418 0 0 -1.43822e-06 0.0005 1.46608e-07 
112 1 0.019596 0.0200054 0.0166741 0.00208485 -0.0208173 0.00768017 0 0 -1.43822e-06 0.0005 1.46608e-07 
114 1 0.0175303 0.0236288 0.0152314 0.00869745 -0.000473119 -0.000538192 4.53579e-06 2.84399e-06 -1.04173e-05 0.0005 1.46608e-07 
115 1 0.018442 0.0193909 0.00614784 8.49323e-15 3.4879e-15 -7.01726e-14 -1.24408e-20 1.41481e-20 -4.23516e-22 0.0005 1.46608e-07 
116 1 0.0170464 0.0240946 0.018057 0.0953809 -0.0280092 0.00483695 0 0 -1.43822e-06 0.0005 1.46608e-07 
117 1 0.0212252 0.0230677 0.0133532 0.000988922 0.00358287 -0.00673774 5.70394e-07 -1.35821e-06 1.29044e-06 0.0005 1.46608e-07 
118 1 0.0249031 0.017495 0.00753495 0.000461461 -0.0248054 0.0075637 6.70426e-10 -7.99741e-11 1.32694e-08 0.0005 1.46608e-07 
119 1 0.0238894 0.0163899 0.0150594 0.0019976 -0.0347105 -0.0233359 -2.52093e-08 -1.49926e-09 7.26995e-08 0.0005 1.46608e-07 
120 1 0.0140436 0.0225357 0.0154572 0.00171478 0.00274791 0.000436981 9.87879e-08 -1.64822e-07 -1.79965e-07 0.0005 1.46608e-07 
121 1 0.027562 0.0217394 0.0148177 0.000940722 0.0170323 -0.0147807 -4.44991e-09 1.97343e-09 -2.25154e-08 0.0005 1.46608e-07 
122 1 0.0179091 0.0235808 0.0140973 -9.39083e-05 -0.00573238 0.00976282 2.75603e-06 -5.41602e-06 1.02961e-05 0.0005 1.46608e-07 
123 1 0.0215169 0.0220543 0.0147397 0.0022112 0.00872046 -0.00870278 1.76123e-06 -4.16689e-06 3.9104e-06 0.0005 1.46608e-07 
124 1 0.0230136 0.0204523 0.0158919 0.00262762 0.0139624 0.000708085 5.70761e-07 -4.12555e-07 6.27334e-06 0.0005 1.46608e-07 
125 1 0.0244232 0.015946 0.00848665 0.000537888 -0.0166652 0.0177934 -1.131e-08 -1.20121e-07 1.71876e-07 0.0005 1.46608e-07 
126 1 0.0185385 0.0141979 0.0142373 -0.021862 -0.038509 -0.0974742 0 0 -1.43822e-06 0.0005 1.46608e-07 
127 1 0.0175478 0.0210651 0.015473 -0.00426862 0.0109926 -0.00616313 -5.00489e-06 -3.90878e-06 1.10475e-06 0.0005 1.46608e-07 
128 1 0.0174305 0.0195744 0.0170684 0.00762345 0.00418064 -0.00906544 1.23453e-06 -7.01897e-06 1.35816e-05 0.0005 1.46608e-07 
129 1 0.0182653 0.0188216 0.0168209 0.0198742 -0.00772222 -0.00456579 0 0 -1.43822e-06 0.0005 1.46608e-07 
131 1 0.0213341 0.0225948 0.0140415 0.00286584 0.00536642 -0.00808669 7.45663e-07 -2.28648e-06 2.9765e-06 0.0005 1.46608e-07 
132 1 0.0189117 0.0241577 0.0126655 -0.000256647 0.00151838 -0.00046209 -4.54307e-07 1.56696e-08 -5.23211e-07 0.0005 1.46608e-07 
133 1 0.0153207 0.023051 0.0140123 0.00406459 0.00253379 -0.00481198 -1.68353e-06 6.3674e-07 -5.56554e-07 0.0005 1.46608e-07 
134 1 0.0202927 0.0242028 0.0129195 -0.00075043 0.00120165 0.000653814 1.37967e-08 -4.52663e-08 3.50019e-07 0.0005 1.46608e-07 
135 1 0.024001 0.0200906 0.0159824 0.00398144 0.00947299 0.00363165 4.12856e-06 5.49743e-07 4.196e-06 0.0005 1.46608e-07 
136 1 0.0259007 0.0200896 0.0169493 0.00593019 -0.0108042 0.000105214 0 0 -1.43822e-06 0.0005 1.46608e-07 
137 1 0.021512 0.02406 0.013472 0.000870366 0.00120384 -0.00167172 3.31104e-07 -8.09239e-07 6.45127e-07 0.0005 1.46608e-07 
138 1 0.0181018 0.0244551 0.0138489 -0.00018345 -0.00115566 0.000838757 2.11081e-07 -9.61379e-07 1.29914e-06 0.0005 1.46608e-07 
139 1 0.0268051 0.0233772 0.0119816 0.000580213 0.00266775 -0.0235216 -3.24783e-09 -1.39704e-08 -1.94347e-08 0.0005 1.46608e-07 
140 1 0.0220534 0.0233907 0.0137099 0.00139251 0.00257812 -0.00295822 5.91616e-07 -2.39994e-06 2.36214e-06 0.0005 1.46608e-07 
141 1 0.0219553 0.0218243 0.0168512 0.0186178 0.018956 -0.0163758 0 0 -1.43822e-06 0.0005 1.46608e-07 
142 1 0.0258711 0.0191109 0.0167435 -0.00338365 0.00900568 -0.00103679 0 0 -1.43822e-06 0.0005 1.46608e-07 
143 1 0.0197368 0.0209663 0.0164069 -0.000627383 -0.00301046 0.00285523 0 0 -1.43822e-06 0.0005 1.46608e-07 
144 1 0.0246882 0.0149733 0.0101598 0.00152383 -0.00393161 0.00436402 -3.01597e-08 6.5053e-08 5.92326e-08 0.0005 1.46608e-07 
145 1 0.0200187 0.0140316 0.014115 -0.0164679 -0.00860742 0.0358089 0 0 -1.43822e-06 0.0005 1.46608e-07 
146 1 0.0168985 0.023145 0.0146074 -0.00285753 0.0022383 0.00119911 -6.9238e-06 7.27996e-06 -4.93972e-06 0.0005 1.46608e-07 
147 1 0.018279 0.0230724 0.0148742 0.00464861 -0.00990141 0.0059623 -1.60634e-06 1.09892e-05 -4.48309e-06 0.0005 1.46608e-07 
148 1 0.0188579 0.020401 0.0174535 0.00601332 0.0195437 -0.0103179 0 0 -1.43822e-06 0.0005 1.46608e-07 
149 1 0.0203951 0.0213286 0.00783645 1.96803e-05 0.00924131 0.0019621 -7.39306e-08 1.38413e-07 2.50025e-07 0.0005 1.46608e-07 
150 1 0.0205794 0.0243668 0.0138154 -0.00049809 -9.35103e-05 -6.3454e-05 -1.32135e-06 3.49147e-07 2.49782e-07 0.0005 1.46608e-07 
151 1 0.0193558 0.0180978 0.0166605 0.00910387 -0.0086762 -0.00237843 -1.70746e-07 3.78034e-07 1.20868e-07 0.0005 1.46608e-07 
152 1 0.0210429 0.0141321 0.0133667 -0.00224112 -0.00196936 0.0012858 -1.51088e-07 -5.96334e-08 -3.88361e-08 0.0005 1.46608e-07 
153 1 0.0198091 0.0207058 0.0173705 0.0138182 0.0059698 -0.00359457 0 0 -1.43822e-06 0.0005 1.46608e-07 
154 1 0.017173 0.0190109 0.0163003 0.00726231 0.00468021 -0.00436994 -2.1188e-06 5.46387e-06 5.34634e-06 0.0005 1.46608e-07 
155 1 0.0169545 0.0230802 0.0158338 0.00646147 0.00122746 0.00258767 1.21984e-05 1.05315e-05 -1.28339e-05 0.0005 1.46608e-07 
156 1 0.018561 0.0232634 0.0167348 0.00297712 0.00173642 2.46133e-05 -6.16855e-06 -3.82399e-06 -1.89142e-06 0.0005 1.46608e-07 
157 1 0.0199769 0.0145919 0.0157693 -0.0516163 0.000888839 -0.0311148 7.7326e-08 4.24754e-07 -8.35734e-07 0.0005 1.46608e-07 
158 1 0.0183603 0.0158501 0.0156087 -0.0118236 -0.0228063 -0.0167034 0 0 -1.43822e-06 0.0005 1.46608e-07 
159 1 0.0160008 0.0160986 0.0158842 -0.0012096 -0.00116506 -0.00250951 8.90615e-09 -3.30746e-08 1.71407e-08 0.0005 1.46608e-07 
160 1 0.0179213 0.0214097 0.0167971 0.00555659 0.00245019 -0.00344615 -3.94633e-06 -1.84118e-06 6.85808e-06 0.0005 1.46608e-07 
161 1 0.0146254 0.0218889 0.0159503 0.00351641 0.00234306 -0.00177694 1.1728e-07 -1.5129e-07 -3.06016e-07 0.0005 1.46608e-07 
162 1 0.0193908 0.0161722 0.0158784 0.00180474 0.0111445 0.00695121 -8.02803e-08 -6.17646e-08 -3.81962e-08 0.0005 1.46608e-07 
163 1 0.0168964 0.0213629 0.0166397 -0.00904172 0.00093827 0.00277005 2.91863e-06 1.89203e-06 -7.28106e-07 0.0005 1.46608e-07 
164 1 0.0247412 0.0199749 0.0166764 0.0233567 0.0129576 0.00516769 0 0 -1.43822e-06 0.0005 1.46608e-07 
165 1 0.0205899 0.0198903 0.0167045 0.00853595 0.0187294 -0.00446309 -8.55866e-07 8.0813e-07 -8.32158e-07 0.0005 1.46608e-07 
166 1 0.0188399 0.0216847 0.0161675 0.0434107 -0.00395309 0.0350368 0 0 -1.43822e-06 0.0005 1.46608e-07 
167 1 0.0182389 0.0151811 0.014227 0.00843917 0.00627649 0.000675028 0 0 -1.43822e-06 0.0005 1.46608e-07 
168 1 0.0129232 0.0209169 0.0164053 0.00288249 0.00460565 -0.00121788 2.6625e-07 4.01561e-07 -1.31397e-07 0.0005 1.46608e-07 
169 1 0.0200953 0.0140271 0.013059 -0.00393097 -0.000815555 0.00385474 3.82372e-08 -2.2466e-07 -1.10937e-06 0.0005 1.46608e-07 
170 1 0.0222183 0.0182107 0.0174834 0.0127765 -0.0839277 -0.22272 0 0 -1.43822e-06 0.0005 1.46608e-07 
171 1 0.0159729 0.0231482 0.0132307 0.00385752 0.00173605 -0.00311997 -1.40257e-05 -5.77973e-06 1.26923e-05 0.0005 1.46608e-07 
172 1 0.0250622 0.0110441 0.0296002 0.227119 -0.0849838 0.486851 0 0 -1.43822e-06 0.0005 1.46608e-07 
173 1 0.0138982 0.0207101 0.0164901 0.00252929 0.0161469 -0.00437529 -1.94729e-07 1.34426e-06 -5.40513e-07 0.0005 1.46608e-07 
174 1 0.0166395 0.0142043 0.0136371 0.000800409 0.00108022 -0.00344664 2.19172e-08 -2.74394e-08 -1.80249e-08 0.0005 1.46608e-07 
175 1 0.0196647 0.0240646 0.0161085 0.00229865 0.000382185 -0.00111595 -2.22374e-06 -2.45715e-06 4.21035e-06 0.0005 1.46608e-07 
176 1 0.0132901 0.0152192 0.0223107 -0.228122 0.0550731 0.181575 0 0 -1.43822e-06 0.0005 1.46608e-07 
177 1 0.018752 0.0207296 0.0164797 0.0215414 -0.0265543 0.0191335 0 0 -1.43822e-06 0.0005 1.46608e-07 
178 1 0.0176065 0.0171967 0.0155389 0.0131035 0.00416397 0.00264221 -6.41779e-07 2.68874e-07 5.36373e-07 0.0005 1.46608e-07 
179 1 0.0212366 0.0218026 0.0160156 0.00881381 0.0224973 -0.0124028 2.07954e-06 3.40304e-06 -4.14716e-07 0.0005 1.46608e-07 
180 1 0.0220482 0.0233867 0.0165263 -0.0123479 0.0226415 0.0411081 -3.44147e-07 -5.88471e-07 -1.56231e-06 0.0005 1.46608e-07 
181 1 0.015916 0.0151166 0.0150169 0.000489996 -0.00332486 -0.00306891 -2.11087e-07 -2.57842e-07 -2.13591e-07 0.0005 1.46608e-07 
182 1 0.0226886 0.0165359 0.0185638 0 -0 -0.01 0 0 0 0.0005 1.46608e-07 
184 1 0.0192481 0.0232394 0.014699 0.00254264 -0.00497427 0.00776506 3.57826e-06 -9.79651e-06 -3.22793e-06 0.0005 1.46608e-07 
185 1 0.0150109 0.0148528 0.014676 0.00271881 -7.21163e-05 -0.00436652 9.34319e-08 -6.05137e-08 -3.20399e-08 0.0005 1.46608e-07 
186 1 0.0157958 0.0222334 0.0178231 0.00577208 -0.00272199 -0.00270461 6.86668e-07 -2.51986e-06 3.26647e-07 0.0005 1.46608e-07 
187 1 0.0174253 0.022298 0.014535 0.00276135 0.00642195 -0.00810868 -6.11908e-07 5.33809e-06 -4.31181e-07 0.0005 1.46608e-07 
188 1 0.0180746 0.0192637 0.0159421 0.0102694 0.00602689 -0.00233693 0 0 -1.43822e-06 0.0005 1.46608e-07 
189 1 0.016414 0.0214472 0.015241 0.00271384 0.00532399 -0.00251322 6.1559e-06 -6.84913e-06 5.9964e-08 0.0005 1.46608e-07 
190 1 0.017503 0.0157587 0.0150128 -0.000296265 -0.00560409 -0.0330139 -1.15069e-08 -9.57714e-08 -7.48094e-07 0.0005 1.46608e-07 
191 1 0.0161624 0.0187422 0.0168494 0.00793762 0.016119 -0.00209763 -1.83686e-06 -7.80899e-08 6.72413e-06 0.0005 1.46608e-07 
192 1 0.018823 0.0213886 0.0172309 0.0100392 -0.000220293 -0.00440841 -9.17158e-07 -1.65987e-06 -6.79637e-07 0.0005 1.46608e-07 
193 1 0.0182102 0.0213478 0.0180201 0.00184442 0.0082892 -0.00876566 0 0 -1.43822e-06 0.0005 1.46608e-07 
194 1 0.022406 0.0219724 0.0147965 5.57422e-05 0.00635069 -0.00533018 2.84513e-06 -3.01422e-06 4.82074e-06 0.0005 1.46608e-07 
195 1 0.0179973 0.0198119 0.0178413 0.0012386 0.000459482 -0.00729404 8.17661e-06 -3.58255e-06 3.01778e-06 0.0005 1.46608e-07 
196 1 0.0156646 0.0195665 0.017119 -0.00228429 0.0110047 -0.000329787 2.97999e-07 4.05992e-07 -2.19314e-07 0.0005 1.46608e-07 
198 1 0.0159985 0.0228247 0.0159616 0.00469331 0.0023686 0.0011026 1.99713e-05 1.11851e-05 4.712e-06 0.0005 1.46608e-07 
199 1 0.0174718 0.0148583 0.0129874 0.00455532 0.000745761 0.00497005 1.58564e-07 -2.73389e-07 -6.78254e-07 0.0005 1.46608e-07 
200 1 0.0173908 0.0222568 0.0167829 0.00223065 0.00173305 0.00264019 4.06932e-06 -2.72331e-06 1.38229e-07 0.0005 1.46608e-07 
202 1 0.0156395 0.0219697 0.0155961 0.00292211 0.00656171 -0.00666221 3.21496e-06 9.31537e-06 -1.1743e-05 0.0005 1.46608e-07 
203 1 0.0155425 0.0233139 0.0176858 -0.00111987 -0.0010927 0.000437183 -4.41192e-06 2.12237e-06 5.99058e-06 0.0005 1.46608e-07 
204 1 0.0210561 0.0215018 0.0171535 0.00483972 0.0157795 -0.00218999 -1.39024e-06 4.01706e-06 2.74112e-06 0.0005 1.46608e-07 
205 1 0.0236958 0.0182404 0.0161103 0.0414401 -0.0429923 0.010556 0 0 -1.43822e-06 0.0005 1.46608e-07 
206 1 0.0195256 0.023469 0.0168993 0.00678174 -0.00188744 -0.00240624 -2.86458e-06 -3.83686e-06 5.11462e-06 0.0005 1.46608e-07 
207 1 0.0214277 0.0233482 0.0143757 0.000973154 0.00200338 -0.00390937 -1.37603e-06 -1.44452e-06 1.48055e-06 0.0005 1.46608e-07 
208 1 0.0207304 0.0208584 0.016461 0.00429801 0.0203961 -0.00723776 1.84147e-06 3.71019e-06 4.94631e-06 0.0005 1.46608e-07 
209 1 0.0148446 0.021022 0.0163979 0.00748539 0.00251293 -0.00199653 -3.8742e-07 1.81901e-06 1.54285e-07 0.0005 1.46608e-07 
210 1 0.0224639 0.0199185 0.0167791 -0.00175488 0.0233007 -0.00185202 7.08754e-07 2.31815e-06 7.2521e-06 0.0005 1.46608e-07 
211 1 0.0146817 0.0230943 0.0149275 0.00336968 0.00278083 0.000984752 -2.4256e-07 9.9311e-08 8.12875e-07 0.0005 1.46608e-07 
212 1 0.0179603 0.0424902 0.0677618 -0.0643904 0.163409 0.0172584 0 0 -1.43822e-06 0.0005 1.46608e-07 
213 1 0.0239687 0.0165745 0.016177 -0.00626303 0.00198148 -0.0115494 -3.74359e-07 2.27789e-07 -1.07519e-06 0.0005 1.46608e-07 
214 1 0.0157755 0.0169936 0.0163928 -0.00485653 0.0156955 0.00842549 0 0 -1.43822e-06 0.0005 1.46608e-07 
215 1 0.0179192 0.0228944 0.016055 -0.000383831 0.00302348 0.00513566 -9.3501e-07 -7.70937e-06 -2.89483e-06 0.0005 1.46608e-07 
216 1 0.0205319 0.0222059 0.0165989 0.0119168 0.00503212 0.00511499 -1.42188e-08 5.31282e-06 -2.92849e-06 0.0005 1.46608e-07 
217 1 0.022852 0.0167464 0.0163794 -0.0377452 -0.0248587 -0.0272808 0 0 -1.43822e-06 0.0005 1.46608e-07 
218 1 0.0236759 0.0219197 0.0171628 0.0244908 -0.0310724 -0.000917582 1.19327e-08 3.34426e-08 -1.43948e-06 0.0005 1.46608e-07 
219 1 0.018221 0.0238398 0.0159445 -9.90454e-05 0.00050058 -1.69078e-05 -5.63606e-06 -5.82163e-06 -1.01699e-05 0.0005 1.46608e-07 
221 1 0.0151373 0.0155757 0.0154671 0.00660519 -0.00682064 -0.0108629 3.27924e-08 -2.43563e-07 -1.38458e-07 0.0005 1.46608e-07 
222 1 0.023312 0.0213976 0.0163913 0.0146698 -0.0100342 -0.0113571 2.03149e-06 3.75795e-06 -9.72639e-07 0.0005 1.46608e-07 
223 1 0.0247801 0.0167923 0.00780441 -0.000390131 -0.0213039 0.0142151 -1.40733e-09 -1.16405e-09 1.62239e-08 0.0005 1.46608e-07 
224 1 0.0247037 0.0162037 0.0156094 -0.0022665 0.00111737 -0.00532076 -1.66616e-07 1.30479e-07 -6.15778e-07 0.0005 1.46608e-07 
225 1 0.0188573 0.0159548 0.0146861 0.00320647 -0.0020922 -0.00294119 -5.60117e-08 -1.95088e-07 -3.85925e-07 0.0005 1.46608e-07 
226 1 0.0177901 0.0145916 0.0151224 0.0194673 -0.0133179 -0.0856307 0 0 -1.43822e-06 0.0005 1.46608e-07 
227 1 0.0168782 0.0144314 0.0170971 0.0679135 0.0309074 -0.0295062 0 0 -1.43822e-06 0.0005 1.46608e-07 
228 1 0.0169145 0.0204253 0.016983 0.00655545 0.00227496 0.000639898 1.20463e-05 9.31246e-07 4.98407e-06 0.0005 1.46608e-07 
229 1 0.0197625 0.0244757 0.0170147 0.00274481 0.000247981 0.000189359 -1.90332e-06 -6.25056e-07 1.35892e-06 0.0005 1.46608e-07 
230 1 0.0151147 0.0172589 0.0188521 0 -0 -0.01 0 0 0 0.0005 1.46608e-07 
231 1 0.0158241 0.0212684 0.016284 0.000624581 0.00819129 0.00155779 -7.93651e-06 6.19938e-06 -1.06573e-06 0.0005 1.46608e-07 
232 1 0.0135782 0.0218117 0.0159662 0.000764248 0.0016587 -0.000225306 3.84121e-07 -5.51527e-07 7.71501e-07 0.0005 1.46608e-07 
234 1 0.0203798 0.0231479 0.0148024 0.00319221 -1.45116e-05 -0.00028784 -3.94576e-06 1.74532e-06 -4.08711e-06 0.0005 1.46608e-07 
235 1 0.0197048 0.022661 0.0153747 0.00299502 -0.00452295 0.00699698 4.3701e-06 8.48853e-07 2.72485e-06 0.0005 1.46608e-07 
236 1 0.0241606 0.0208937 0.0165567 0.0198187 0.00938164 -0.00104077 0 0 -1.43822e-06 0.0005 1.46608e-07 
237 1 0.0248248 0.021569 0.0161392 0.0059967 -0.00836046 0.00800781 0 0 -1.43822e-06 0.0005 1.46608e-07 
238 1 0.0166163 0.0177593 0.0166384 0.00380365 0.0136829 0.00135488 3.39364e-07 -4.58397e-07 1.44855e-07 0.0005 1.46608e-07 
239 1 0.0221461 0.0148704 0.0147395 0.00917693 0.000457525 -0.00364464 -7.45572e-08 6.53906e-08 -9.70867e-07 0.0005 1.46608e-07 
240 1 0.021942 0.023605 0.0151807 3.91122e-05 0.000244946 -0.000648576 -1.72917e-06 -7.51293e-07 1.18555e-07 0.0005 1.46608e-07 
241 1 0.018237 0.0141608 0.0127231 0.0102692 -0.00345578 0.00945678 -1.20286e-06 2.95644e-06 -7.40308e-06 0.0005 1.46608e-07 
242 1 0.0213472 0.0158266 0.0156557 0.000861345 0.00322791 0.000836423 -1.49787e-08 -1.57277e-07 -1.03026e-07 0.0005 1.46608e-07 
243 1 0.016218 0.0164448 0.0182699 0 0 -0.0572597 0 0 -1.43822e-06 0.0005 1.46608e-07 
244 1 0.0160082 0.0203289 0.0165704 -0.00058688 0.00864291 0.00816574 6.74315e-06 -9.31864e-07 7.23821e-07 0.0005 1.46608e-07 
245 1 0.0194418 0.0238965 0.0131378 -0.000248314 0.0054303 -0.00561843 -5.18687e-07 5.08707e-08 2.39171e-07 0.0005 1.46608e-07 
246 1 0.0203432 0.0164385 0.0160502 0.00234773 0.014931 0.00832726 -9.22902e-08 -1.62687e-09 -2.22231e-09 0.0005 1.46608e-07 
248 1 0.0198009 0.0230552 0.0187992 0 -0 -0.01 0 0 0 0.0005 1.46608e-07 
249 1 0.0164207 0.0185016 0.0159141 0.000412548 0.0188219 0.000443896 1.81461e-07 3.97571e-06 1.09102e-06 0.0005 1.46608e-07 
250 1 0.0160532 0.0211139 0.0172449 0.00847926 0.00765099 0.000122975 7.33222e-07 -2.05052e-06 7.5157e-07 0.0005 1.46608e-07 
251 1 0.0187347 0.0224503 0.0155214 -0.01373 -0.0095696 0.0155804 0 0 -1.43822e-06 0.0005 1.46608e-07 
252 1 0.0256886 0.0238567 0.0238309 -0.083849 -0.0178852 -0.239241 0 0 -1.43822e-06 0.0005 1.46608e-07 
253 1 0.0186124 0.0197562 0.0166977 -0.0154562 -0.0331831 0.00906047 4.00695e-07 2.40615e-06 9.78052e-07 0.0005 1.46608e-07 
254 1 0.0174808 0.0200662 0.0158824 0.00653581 0.00110955 0.00505201 0 0 -1.43822e-06 0.0005 1.46608e-07 
255 1 0.018417 0.0202792 0.0186032 0 -0 -0.01 0 0 0 0.0005 1.46608e-07 
256 1 0.0180665 0.0228754 0.0175774 0.00478789 0.00885764 -0.00635856 0 0 -1.43822e-06 0.0005 1.46608e-07 
257 1 0.0168807 0.0148467 0.0147924 -0.00161563 -0.0272893 -0.0392238 -6.16992e-08 -3.90785e-07 -7.1307e-07 0.0005 1.46608e-07 
258 1 0.0205715 0.0240324 0.0165552 0.0017167 -0.00039983 -0.000366052 0 0 -1.43822e-06 0.0005 1.46608e-07 
259 1 0.0237093 0.0173655 0.0156112 0.00230317 0.0133398 0.00511856 -1.27181e-07 1.22427e-07 5.80323e-08 0.0005 1.46608e-07 
260 1 0.0211035 0.0231653 0.0161271 0.00370011 0.0165881 -0.00499641 7.08624e-06 -3.28167e-06 6.75544e-08 0.0005 1.46608e-07 
261 1 0.0218819 0.0143804 0.0139089 -0.000281 1.65765e-05 -0.000297544 1.31215e-07 6.60508e-08 -1.57008e-07 0.0005 1.46608e-07 