ITEM: TIMESTEP
24400000
ITEM: NUMBER OF ATOMS
107
ITEM: BOX BOUNDS ff ff ff
-0.02 0.43
-0.02 0.06
-0.02 0.07
ITEM: ATOMS id type x y z vx vy vz fx fy fz radius mass 
1 1 0.0208533 0.0146406 0.0120696 0.0013654 0.000874141 -8.52431e-05 -2.1892e-08 -1.63984e-08 1.12696e-10 0.0005 1.46608e-07 
2 1 0.0239242 0.0201959 0.00707656 0.00160198 -0.00787159 -0.0018463 -1.01363e-08 4.1852e-08 3.90406e-08 0.0005 1.46608e-07 
4 1 0.0173399 0.016497 0.0161111 -0.0025095 -0.00368864 -0.00517629 3.1054e-08 -1.28041e-07 -4.95952e-08 0.0005 1.46608e-07 
5 1 0.0552529 0.0189972 0.0058882 -1.3212e-17 -1.80516e-17 -2.5713e-16 -2.64698e-23 1.32349e-23 0 0.0005 1.46608e-07 
15 1 0.00938048 0.0183393 0.00587271 3.64242e-15 5.5138e-16 -3.69011e-14 -3.81165e-21 2.81572e-20 0 0.0005 1.46608e-07 
16 1 0.0260391 0.0196534 0.00594246 2.09856e-14 3.38093e-15 -3.42138e-13 5.29396e-23 -9.92617e-24 0 0.0005 1.46608e-07 
17 1 0.0434025 0.0148345 0.0110891 4.40644e-05 -0.00247681 0.0171764 -1.00872e-07 -7.7857e-08 2.32161e-07 0.0005 1.46608e-07 
18 1 0.0366849 0.0218066 0.0435188 -9.6879e-317 9.73506e-317 2.68131e-13 0 0 0 0.0005 1.46608e-07 
20 1 0.0484658 0.0162695 0.014764 0.000138761 0.0160392 0.0138911 -9.44824e-10 1.09511e-08 -4.73537e-09 0.0005 1.46608e-07 
24 1 0.0420406 0.0181418 0.0157006 0.00188318 0.0158802 0.00491496 1.57725e-08 -3.32931e-08 -2.10183e-08 0.0005 1.46608e-07 
25 1 0.0339249 0.0173116 0.00624552 -1.65996e-15 -9.41442e-15 -2.80402e-14 -1.65538e-18 -5.3469e-21 5.56924e-20 0.0005 1.46608e-07 
27 1 0.000591717 0.0149731 0.0435188 9.71467e-317 9.75789e-317 -8.23806e-13 0 0 0 0.0005 1.46608e-07 
28 1 0.0461387 0.023279 0.010693 0.000789318 -0.00443138 -0.0184176 1.24324e-07 -2.32061e-08 -8.91784e-08 0.0005 1.46608e-07 
32 1 0.0364748 0.0208476 0.00623738 4.37183e-15 -1.48266e-14 6.83465e-14 7.41154e-22 -1.58819e-22 -2.11758e-22 0.0005 1.46608e-07 
33 1 0.0316017 0.014903 0.0104078 0.000340474 -0.0050632 0.0196134 -1.93678e-09 1.19453e-08 1.32358e-08 0.0005 1.46608e-07 
37 1 0.0447338 0.0188114 0.00719472 0.0030059 -0.00358253 -0.000849968 8.31385e-08 6.54579e-07 -1.22006e-07 0.0005 1.46608e-07 
41 1 0.0276767 0.0223825 0.00871342 0.00147209 -0.0111811 -0.0119489 1.29805e-08 1.95001e-08 4.18951e-08 0.0005 1.46608e-07 
44 1 0.0364866 0.016195 0.0147112 0.00218263 0.012419 0.00934382 -1.24237e-08 -1.32321e-09 -2.50058e-09 0.0005 1.46608e-07 
47 1 0.0211111 0.0201378 0.00734477 7.10247e-05 -0.0212047 -0.00644612 -1.06085e-09 -7.41433e-09 1.00617e-08 0.0005 1.46608e-07 
49 1 0.003617 0.0285782 0.0435188 -9.68849e-317 -9.75601e-317 2.88878e-12 0 0 0 0.0005 1.46608e-07 
52 1 0.0860181 0.0183082 0.00577269 -1.22269e-15 3.67087e-14 1.26768e-13 6.6555e-21 -6.35275e-22 2.11758e-22 0.0005 1.46608e-07 
57 1 0.0177449 0.0174882 0.00600758 2.62545e-15 1.02256e-14 2.1282e-14 -1.4029e-21 6.35275e-22 -2.11758e-22 0.0005 1.46608e-07 
59 1 0.0470261 0.0222649 0.0144408 0.000426182 0.0148098 -0.0152813 -6.17296e-10 -2.80499e-09 -1.20099e-08 0.0005 1.46608e-07 
63 1 0.0245203 0.0163586 0.0150411 0.00430315 0.0035395 0.00164798 -9.69199e-10 -4.79722e-09 1.14219e-08 0.0005 1.46608e-07 
65 1 0.112778 0.0179068 0.0059233 7.46667e-16 3.4639e-15 1.42003e-14 -2.0788e-19 4.01282e-20 3.38813e-21 0.0005 1.46608e-07 
67 1 0.0463353 0.0233572 0.0115863 7.75581e-05 0.00236133 -0.0218761 4.69056e-08 -6.43829e-08 -3.68323e-07 0.0005 1.46608e-07 
68 1 0.0452523 0.0173614 0.00620617 -3.12616e-15 -1.74656e-14 -1.20236e-13 -7.82182e-21 2.91168e-22 4.23516e-22 0.0005 1.46608e-07 
73 1 0.0349285 0.0181778 0.00592251 6.3581e-16 6.72256e-15 2.00025e-14 -2.733e-21 -4.76456e-22 2.11758e-22 0.0005 1.46608e-07 
74 1 0.0378742 0.0155159 0.0090784 0.000118709 -0.0100202 0.0139187 -4.77654e-09 3.16457e-08 -1.87582e-08 0.0005 1.46608e-07 
76 1 0.0307663 0.0154983 0.0139189 0.000384001 0.00982643 0.0168876 -1.60515e-09 4.78846e-08 2.32499e-08 0.0005 1.46608e-07 
79 1 0.0551402 0.017971 0.00596606 -2.82227e-15 -3.83392e-15 -5.46136e-14 9.26442e-23 1.32349e-23 0 0.0005 1.46608e-07 
84 1 0.0393048 0.0211588 0.0077263 0.000167996 -0.0186839 -0.0112737 -1.39952e-10 -1.0325e-08 6.53973e-09 0.0005 1.46608e-07 
87 1 0.0449635 0.0196479 0.00719354 0.00202363 -0.0124612 -0.00136104 4.22731e-08 2.19813e-07 3.55971e-08 0.0005 1.46608e-07 
88 1 0.0443777 0.0170451 0.00780107 -0.000555788 -0.0213491 0.0114377 -3.31935e-08 -6.30673e-08 1.45889e-08 0.0005 1.46608e-07 
89 1 0.0475951 0.0200495 0.0157016 0.00116273 0.0205542 -0.00492958 1.20901e-07 1.58301e-06 1.41017e-06 0.0005 1.46608e-07 
90 1 0.0376624 0.0150535 0.0100946 -9.52542e-05 -0.00338043 0.00942981 -1.88438e-09 -8.88877e-09 2.53361e-08 0.0005 1.46608e-07 
92 1 0.0440977 0.0160984 0.0083762 0.000908567 -0.0110327 0.0103999 1.26951e-08 1.24127e-07 -1.42734e-07 0.0005 1.46608e-07 
97 1 0.0262217 0.0164646 0.00807186 0.000126345 -0.0171552 0.0128438 -5.91759e-07 6.74669e-07 1.95379e-07 0.0005 1.46608e-07 
103 1 0.0425124 0.0161403 0.0146418 0.00158094 0.0137591 0.0115813 -1.82155e-08 1.70849e-08 1.15241e-08 0.0005 1.46608e-07 
108 1 0.0214483 0.0168437 0.00645098 -2.38662e-14 5.08811e-14 1.84337e-13 -2.99109e-20 1.12761e-20 -3.17637e-21 0.0005 1.46608e-07 
109 1 0.032333 0.0168026 0.00780285 0.000603901 -0.0192649 0.0104971 4.47764e-06 1.2207e-05 -7.6061e-06 0.0005 1.46608e-07 
112 1 0.0408752 0.0226402 0.0138011 -0.000159926 0.0139231 -0.0176807 -1.07904e-09 -8.39073e-09 -5.389e-09 0.0005 1.46608e-07 
121 1 0.0586827 0.0172628 0.00598816 1.03826e-14 -2.15393e-14 -2.64999e-13 -5.44616e-21 -1.03232e-21 0 0.0005 1.46608e-07 
122 1 0.0792478 0.0194315 0.00576454 1.16884e-14 4.02517e-14 1.70228e-13 1.46735e-19 -9.99499e-20 1.46113e-20 0.0005 1.46608e-07 
124 1 0.0192355 0.0146602 0.0122563 0.00266279 0.00266952 0.0109571 -1.90861e-09 -4.06187e-10 -4.89821e-09 0.0005 1.46608e-07 
125 1 0.0487864 0.0154741 0.0138279 -0.000220173 0.0072511 0.0153566 1.64258e-08 -1.73673e-09 -8.82642e-08 0.0005 1.46608e-07 
128 1 0.0303903 0.00406748 0.0435188 -9.67556e-317 -9.75879e-317 -3.22607e-12 0 0 0 0.0005 1.46608e-07 
130 1 0.0346551 0.0231762 0.0128076 0.00013326 0.00724014 -0.0205958 -3.77784e-10 -8.40471e-09 -9.5122e-09 0.0005 1.46608e-07 
131 1 0.0493327 0.0149941 0.0115229 0.0020054 -0.00129069 0.0188139 -2.89423e-08 1.24655e-08 2.8142e-08 0.0005 1.46608e-07 
133 1 0.0438472 0.0171169 0.00621343 6.11112e-16 -1.5136e-15 -8.51282e-15 7.57433e-20 2.55698e-20 0 0.0005 1.46608e-07 
135 1 0.0466509 0.014896 0.0107407 -2.66197e-05 -0.00518778 0.0214709 -1.26742e-09 1.04368e-08 3.62942e-09 0.0005 1.46608e-07 
137 1 0.0473953 0.0193073 0.0059321 4.73797e-15 -1.01793e-14 -1.05707e-13 5.63806e-21 3.75871e-21 -2.11758e-22 0.0005 1.46608e-07 
139 1 0.0388093 0.0189436 0.00722304 -5.35957e-05 -0.0222968 -0.000346262 -1.44038e-09 -3.66903e-09 1.10123e-08 0.0005 1.46608e-07 
141 1 0.0348978 0.0225583 0.0140455 0.00184492 0.00888311 -0.0112087 1.90344e-06 -1.36734e-06 -8.08846e-07 0.0005 1.46608e-07 
142 1 0.0496638 0.0150331 0.0101526 0.000435357 -0.00410935 0.0104 7.90087e-09 7.66737e-09 -2.48411e-09 0.0005 1.46608e-07 
143 1 0.0428356 0.0153328 0.0137008 0.000353967 0.0105176 0.0190907 -1.60716e-09 1.28598e-08 -3.13565e-10 0.0005 1.46608e-07 
147 1 0.0399074 0.022867 0.00950579 0.00025337 -0.00949572 -0.0190558 -1.00405e-09 -1.3016e-08 7.86465e-10 0.0005 1.46608e-07 
149 1 0.0584376 0.0191695 0.00582359 8.07929e-15 -1.6884e-14 -2.07262e-13 8.15931e-21 -3.11682e-20 3.17637e-21 0.0005 1.46608e-07 
150 1 0.0198388 0.0153464 0.0092798 -0.000110504 -0.0103565 0.0156815 -8.68607e-09 1.36821e-08 3.46765e-08 0.0005 1.46608e-07 
157 1 0.0201101 0.014599 0.0127372 0.00588828 0.00205132 0.00503557 -1.79743e-08 -1.97987e-09 -1.25289e-08 0.0005 1.46608e-07 
158 1 0.020084 0.0201843 0.0061153 5.4979e-15 -2.51084e-15 5.04901e-14 7.22625e-21 -8.4968e-21 -1.69407e-21 0.0005 1.46608e-07 
160 1 0.0466343 0.0231125 0.0127483 0.000104915 0.0065672 -0.0206222 -2.1786e-10 -8.25422e-09 -9.28502e-09 0.0005 1.46608e-07 
161 1 0.0221348 0.00230077 0.0435188 9.74157e-317 -9.69799e-317 9.23294e-13 0 0 0 0.0005 1.46608e-07 
165 1 0.201805 0.0186174 0.00570934 -3.8561e-20 -8.56408e-22 -1.30474e-21 0 0 0 0.0005 1.46608e-07 
166 1 0.0415999 0.0200428 0.0156468 -0.000322334 0.0222633 -0.00316167 -4.12898e-09 1.19343e-09 -9.40731e-09 0.0005 1.46608e-07 
167 1 0.0287042 0.0230788 0.0130616 0.000107982 0.00984943 -0.0202199 1.56529e-09 -8.36879e-09 -3.60115e-09 0.0005 1.46608e-07 
173 1 0.0830234 0.0186618 0.00583976 1.15463e-14 3.23951e-14 -1.39053e-13 8.84223e-20 6.51157e-21 7.83505e-21 0.0005 1.46608e-07 
174 1 0.0279521 0.0229933 0.00967034 4.13078e-05 -0.0085228 -0.0205103 4.76156e-07 -6.65283e-07 2.16923e-08 0.0005 1.46608e-07 
179 1 0.067984 0.0193424 0.00575613 3.92398e-15 7.52283e-15 2.61625e-13 5.68041e-20 -1.61797e-20 -4.23516e-22 0.0005 1.46608e-07 
185 1 0.0438834 0.0155797 0.00898175 5.46927e-05 -0.00970819 0.0147983 8.36457e-09 3.22547e-08 -2.17844e-08 0.0005 1.46608e-07 
186 1 0.0422906 0.0170023 0.0152551 0.000102447 0.0186308 0.0102235 -2.63962e-10 1.0382e-08 -6.49731e-09 0.0005 1.46608e-07 
187 1 0.0411092 0.0219244 0.0146526 0.000194912 0.0157275 -0.0143218 -1.25291e-09 -3.34835e-09 -1.17627e-08 0.0005 1.46608e-07 
191 1 0.0282173 0.0233839 0.0110929 0.000573874 -0.000813121 -0.0218832 2.01917e-09 -9.84994e-09 -7.49412e-09 0.0005 1.46608e-07 
193 1 0.0253029 0.02045 0.00590518 -2.07807e-14 -3.34545e-15 3.38791e-13 7.14684e-22 -7.15842e-21 0 0.0005 1.46608e-07 
194 1 0.0406273 0.0232185 0.0126473 0.00074867 0.00515448 -0.0190366 5.08068e-09 -2.06878e-08 1.03421e-07 0.0005 1.46608e-07 
197 1 0.0431325 0.0148132 0.0122549 -1.21733e-05 0.00276826 0.0231199 -1.36927e-09 1.15837e-08 7.92288e-10 0.0005 1.46608e-07 
200 1 0.0297834 0.0191653 0.0158114 0.00196355 0.0137729 -0.000638772 -1.85329e-09 -1.81598e-08 -1.73575e-09 0.0005 1.46608e-07 
205 1 0.0383457 0.0197753 0.00590075 6.02707e-15 -2.897e-14 1.4323e-13 -5.77637e-20 -6.67038e-21 1.27055e-21 0.0005 1.46608e-07 
215 1 0.026935 0.0188837 0.00598981 1.43003e-14 2.31186e-15 -2.33189e-13 4.71162e-21 -3.15321e-20 0 0.0005 1.46608e-07 
225 1 0.0317957 0.0152531 0.00939773 0.00137136 -0.00524888 0.00805355 -1.18067e-06 1.15568e-06 6.12407e-08 0.0005 1.46608e-07 
226 1 0.0473544 0.0212109 0.015256 0.000308146 0.0193894 -0.0102839 5.24664e-06 3.07941e-06 -1.6865e-05 0.0005 1.46608e-07 
227 1 0.035642 0.0196689 0.0157764 0.003775 0.0117011 -0.00172797 1.50184e-07 4.85734e-07 -7.87445e-07 0.0005 1.46608e-07 
229 1 0.0454666 0.0218442 0.00820466 0.000324687 -0.0131274 -0.0112711 9.63013e-09 -8.44122e-09 2.44652e-08 0.0005 1.46608e-07 
232 1 0.0221996 0.00109062 0.0435188 9.58743e-317 9.68145e-317 4.97437e-14 0 0 0 0.0005 1.46608e-07 
237 1 0.0452472 0.0207922 0.00756816 0.000101271 -0.0196241 -0.0095737 -2.81163e-10 -8.79046e-09 8.38064e-09 0.0005 1.46608e-07 
241 1 0.0362128 0.0175115 0.0153553 0.000444555 0.0195165 0.00700991 -2.9833e-09 1.07104e-08 -7.94663e-09 0.0005 1.46608e-07 
242 1 0.0343026 0.0233809 0.0114233 0.000437936 0.000119366 -0.0210095 5.50451e-10 -1.02026e-08 -4.60283e-09 0.0005 1.46608e-07 
247 1 0.048167 0.0176932 0.015589 0.000754591 0.0179832 0.00524712 -3.59813e-09 1.54141e-08 -6.5169e-09 0.0005 1.46608e-07 
252 1 0.0561606 0.0173315 0.00595822 1.40319e-14 1.90624e-14 2.71525e-13 3.97047e-23 -1.32349e-22 0 0.0005 1.46608e-07 
253 1 0.0895649 0.0187731 0.00575225 -1.29995e-14 1.90153e-14 2.53777e-13 3.10888e-19 8.56297e-21 1.48231e-20 0.0005 1.46608e-07 
256 1 0.033068 0.0201066 0.00743415 0.000115793 -0.0204813 -0.0050215 -8.24262e-10 -8.61728e-09 8.84811e-09 0.0005 1.46608e-07 
257 1 0.0326835 0.0185347 0.00724073 -0.000186453 -0.0230745 0.000324924 3.07521e-09 -3.68735e-09 1.48063e-08 0.0005 1.46608e-07 
258 1 0.0437003 0.0151738 0.00988224 6.21847e-05 -0.00787533 0.0195756 -3.66968e-10 7.85202e-09 8.89268e-09 0.0005 1.46608e-07 
260 1 0.108836 0.0200055 0.00584234 7.67184e-16 -1.27673e-15 -6.97332e-15 2.56757e-21 5.29396e-23 4.23516e-22 0.0005 1.46608e-07 
268 1 0.0273745 0.0213332 0.00787142 0.000215468 -0.015841 -0.0100568 -1.95594e-09 -9.112e-09 5.49975e-09 0.0005 1.46608e-07 
269 1 0.0371106 0.0148392 0.0123301 0.000444139 0.00282688 0.0180927 3.33481e-09 3.59712e-08 2.83323e-08 0.0005 1.46608e-07 
270 1 0.0333594 0.0214481 0.00789765 0.00112264 -0.00333957 -0.00568164 6.84919e-05 6.49985e-05 3.19119e-05 0.0005 1.46608e-07 
271 1 0.0390655 0.0199815 0.00728912 0.000246431 -0.0201253 -0.00410242 1.14918e-09 -4.95119e-09 1.05682e-08 0.0005 1.46608e-07 
274 1 0.0238889 0.0191227 0.0159507 0.000479044 0.0210011 -0.000203869 -2.48535e-10 1.08669e-09 -1.44546e-08 0.0005 1.46608e-07 
275 1 0.0336286 0.0222824 0.00859999 0.000672555 -0.0134866 -0.0149079 -5.73969e-09 -1.69009e-08 -3.75273e-09 0.0005 1.46608e-07 
277 1 0.0294668 0.0206885 0.0154718 0.000103207 0.020397 -0.00771526 -2.3948e-10 4.88653e-10 -1.23513e-08 0.0005 1.46608e-07 
284 1 0.00937694 0.00505359 0.0435188 -9.68799e-317 -9.69932e-317 9.23294e-13 0 0 0 0.0005 1.46608e-07 
288 1 0.0457039 0.018685 0.00600217 -6.97942e-15 -3.90027e-14 -2.68502e-13 -3.59327e-21 -1.85288e-22 2.11758e-22 0.0005 1.46608e-07 
291 1 0.031112 0.0149487 0.0124031 0.00186256 0.00437963 0.0155493 -7.04141e-09 2.27552e-08 2.59307e-08 0.0005 1.46608e-07 
294 1 0.0239893 0.0191578 0.00594089 -8.43096e-15 -1.73222e-14 -5.67603e-14 -1.17261e-20 -1.74701e-21 1.90582e-21 0.0005 1.46608e-07 
299 1 0.0254808 0.018723 0.00589902 -2.07763e-14 -3.36604e-15 3.38791e-13 1.71657e-20 -6.40602e-20 2.11758e-22 0.0005 1.46608e-07 
300 1 0.0418269 0.0190586 0.0157656 0.000376025 0.0205413 0.000327315 7.45621e-10 -1.09756e-09 -9.7741e-09 0.0005 1.46608e-07 
