ITEM: TIMESTEP
8000000
ITEM: NUMBER OF ATOMS
179
ITEM: BOX BOUNDS ff ff ff
-0.02 0.43
-0.02 0.06
-0.02 0.07
ITEM: ATOMS id type x y z vx vy vz fx fy fz radius mass 
1 1 0.0228371 0.0168105 0.0153365 -0.00094507 0.00146444 -0.00089725 0 0 -1.43822e-06 0.0005 1.46608e-07 
2 1 0.0222095 0.0144393 0.0141301 -0.000784666 -0.000626149 -3.03801e-05 4.73966e-06 1.97572e-06 3.54992e-06 0.0005 1.46608e-07 
3 1 0.020542 0.0235218 0.0142168 -0.026321 -0.131106 0.0746259 0.00119997 0.000107038 0.00202983 0.0005 1.46608e-07 
4 1 0.0208156 0.0233874 0.0160706 -0.0205246 0.00971625 0.0039744 0 0 -1.43822e-06 0.0005 1.46608e-07 
5 1 0.0287286 0.0160503 0.00839883 0.00106695 -0.0111689 0.0104498 1.7607e-08 5.77769e-08 -6.99091e-08 0.0005 1.46608e-07 
7 1 0.0215747 0.0224752 0.0143309 0.00164963 -0.022328 0.024419 0 0 -1.43822e-06 0.0005 1.46608e-07 
11 1 0.0238767 0.0226258 0.0151986 -0.00728732 -0.00236229 0.0101982 0.000210727 -8.27031e-05 -0.000112532 0.0005 1.46608e-07 
13 1 0.0197715 0.0243955 0.0133908 0.017043 -0.0137852 -0.00947616 7.83425e-05 0.000225958 0.000103028 0.0005 1.46608e-07 
15 1 0.00938048 0.0183393 0.00587271 3.64493e-15 5.43686e-16 -3.69009e-14 1.4029e-21 8.54974e-21 2.11758e-22 0.0005 1.46608e-07 
16 1 0.0200541 0.0211417 0.0154218 -9.84708e-05 0.0195977 -0.0104608 2.8269e-08 3.29063e-09 -2.01411e-08 0.0005 1.46608e-07 
17 1 0.0265684 0.0184141 0.0157526 0.000460067 0.0175741 0.00430521 -1.04981e-05 -2.38865e-07 2.56257e-06 0.0005 1.46608e-07 
18 1 0.0366849 0.0218066 0.0435188 -9.6879e-317 9.73506e-317 2.68131e-13 0 0 0 0.0005 1.46608e-07 
19 1 0.0188077 0.0146389 0.0143248 -0.00140755 0.00136516 -0.00242172 -1.51976e-08 1.13149e-07 2.66991e-07 0.0005 1.46608e-07 
20 1 0.031317 0.0229397 0.0132676 -0.000155905 0.0109437 -0.0186792 1.86256e-07 -5.53676e-07 8.22791e-07 0.0005 1.46608e-07 
23 1 0.018877 0.0244558 0.0137462 -0.00355662 -0.0234626 0.0154936 0.000832372 -0.000405301 -0.000360791 0.0005 1.46608e-07 
24 1 0.0250375 0.0233332 0.0120985 0.00285353 0.00190868 -0.0177759 2.22191e-06 -8.61121e-08 -4.7592e-07 0.0005 1.46608e-07 
25 1 0.0192279 0.0236612 0.0134181 0.0388715 -0.0351092 -0.0110082 0.000841553 0.000754817 0.000467954 0.0005 1.46608e-07 
27 1 0.0170023 0.0140582 0.0137979 0.00311632 0.00273281 -0.00943973 3.65207e-07 -8.62033e-07 2.77829e-06 0.0005 1.46608e-07 
28 1 0.028904 0.0168354 0.00777458 0.00209302 -0.0138306 0.00944395 -3.9998e-08 -8.52366e-08 4.82575e-08 0.0005 1.46608e-07 
29 1 0.0183924 0.0143636 0.0153003 0.00897791 0.00309055 -0.00661186 -1.85794e-07 -4.45226e-08 -2.97695e-07 0.0005 1.46608e-07 
31 1 0.0206322 0.0243813 0.0137756 -0.0359212 0.0278709 -0.100558 -0.000998088 -0.000354598 -0.00108583 0.0005 1.46608e-07 
32 1 0.0154603 0.0153058 0.0139208 0.00326598 0.00550494 0.00824058 1.01121e-07 -3.27063e-08 -1.13621e-06 0.0005 1.46608e-07 
33 1 0.0196892 0.0237623 0.0154924 0.00202284 -0.0213556 -0.0388115 0 0 -1.43822e-06 0.0005 1.46608e-07 
34 1 0.0207755 0.0146773 0.0144645 -0.0101101 0.00272915 0.00373205 1.22685e-07 -4.20521e-07 -5.60717e-07 0.0005 1.46608e-07 
35 1 0.0156874 0.0224547 0.014937 0.00544497 0.0121759 -0.0306568 8.73424e-07 3.65471e-07 -8.62884e-07 0.0005 1.46608e-07 
37 1 0.0278596 0.0147943 0.0119491 0.000633182 0.00290265 0.0183124 -5.36867e-09 1.31768e-08 1.86489e-08 0.0005 1.46608e-07 
40 1 0.0218726 0.023797 0.01373 0.0418691 -0.0780216 0.0418586 -0.00470708 -0.000431211 -0.00297075 0.0005 1.46608e-07 
41 1 0.0231244 0.0156225 0.0170433 -0.0322521 0.0770096 -0.162726 0 0 -1.43822e-06 0.0005 1.46608e-07 
43 1 0.0219871 0.0163082 0.0150016 -0.00119382 0.0114986 0.00861037 7.78532e-08 -2.05483e-07 -1.78038e-07 0.0005 1.46608e-07 
44 1 0.019394 0.0239708 0.0144587 0.0336243 -0.0196407 0.0162452 0 0 -1.43822e-06 0.0005 1.46608e-07 
47 1 0.022448 0.015274 0.00939325 0.000353992 -0.0111831 0.0187204 -1.98287e-09 3.53693e-09 1.05595e-08 0.0005 1.46608e-07 
49 1 0.003617 0.0285782 0.0435188 -9.68849e-317 -9.75601e-317 2.88878e-12 0 0 0 0.0005 1.46608e-07 
50 1 0.0210327 0.0167673 0.0153125 0.00107638 0.0153677 0.00932536 -3.54586e-09 1.91247e-08 -3.49718e-10 0.0005 1.46608e-07 
51 1 0.0215134 0.0150612 0.0137721 0.0031679 0.00594445 0.00617965 -1.8976e-06 2.12431e-06 4.79945e-07 0.0005 1.46608e-07 
52 1 0.0281402 0.0151272 0.0131322 4.18545e-05 0.00676729 0.0183876 -1.2576e-08 -5.32883e-09 -4.35755e-08 0.0005 1.46608e-07 
54 1 0.0150125 0.0227835 0.0139124 0.00321074 0.00288349 -0.000667226 -3.27719e-07 -6.08385e-07 1.13751e-06 0.0005 1.46608e-07 
57 1 0.0196051 0.0193773 0.00612808 -3.58933e-14 1.61059e-14 -3.28527e-13 -3.17637e-21 -6.98802e-21 2.11758e-22 0.0005 1.46608e-07 
59 1 0.0296248 0.0200279 0.00729417 3.42785e-05 -0.0202745 -0.00456894 4.44855e-10 -5.2806e-09 1.08049e-08 0.0005 1.46608e-07 
62 1 0.0180244 0.0143253 0.0137651 -0.00269497 -0.00150654 -0.000513953 2.80394e-08 -2.23342e-07 -1.07269e-06 0.0005 1.46608e-07 
63 1 0.0188422 0.0233271 0.0111037 0.00485121 -0.000467068 0.00285464 3.57314e-05 9.36808e-05 0.000470033 0.0005 1.46608e-07 
65 1 0.0296975 0.0173791 0.00753674 0.000554438 -0.0209319 0.0043524 4.06855e-08 3.44385e-08 2.89954e-09 0.0005 1.46608e-07 
67 1 0.0291801 0.0179943 0.00739013 -9.443e-05 -0.0219736 0.00371856 2.38495e-08 2.53796e-08 -3.47551e-09 0.0005 1.46608e-07 
68 1 0.0298923 0.0210056 0.00764887 0.000796265 -0.0176467 -0.00823183 -6.01166e-09 -1.7805e-08 1.90164e-09 0.0005 1.46608e-07 
71 1 0.0181891 0.0234678 0.0143536 -0.0569421 -0.040086 0.0551632 0 0 -1.43822e-06 0.0005 1.46608e-07 
73 1 0.0138662 0.0218327 0.0150901 0.00305363 0.00845661 0.000235792 2.44296e-06 -8.53987e-06 3.78051e-06 0.0005 1.46608e-07 
74 1 0.0204412 0.0240047 0.0126321 -0.094191 0.232902 -0.16619 -0.000710592 -0.0122207 0.00404477 0.0005 1.46608e-07 
76 1 0.0207556 0.0217464 0.0150323 -0.00246813 0.0134847 -0.00815328 0 0 -1.43822e-06 0.0005 1.46608e-07 
79 1 0.0275484 0.0150297 0.0128985 8.91445e-06 0.00699053 0.020638 -3.98368e-09 1.0481e-08 -2.056e-09 0.0005 1.46608e-07 
80 1 0.0186653 0.0231622 0.0104024 0.00175433 -0.00372812 -0.0116647 7.89319e-06 -4.90394e-06 6.77581e-05 0.0005 1.46608e-07 
83 1 0.0199422 0.0144704 0.0162837 -0.0839331 0.00983352 -0.0138697 0 0 -1.43822e-06 0.0005 1.46608e-07 
84 1 0.0251845 0.0213522 0.01626 -0.0115345 0.0143666 -0.0075428 -4.89998e-09 3.30061e-09 -5.58746e-09 0.0005 1.46608e-07 
85 1 0.0217274 0.0148068 0.0128275 0.00439211 0.00118246 0.00229826 -9.73973e-07 4.65318e-07 -2.12382e-08 0.0005 1.46608e-07 
86 1 0.0225816 0.0223637 0.0155927 0.00446921 0.0205477 -0.00570518 0 0 -1.43822e-06 0.0005 1.46608e-07 
87 1 0.0280311 0.0147551 0.0109979 0.000694395 -0.00279338 0.0204822 -9.08706e-09 6.61115e-09 2.63564e-08 0.0005 1.46608e-07 
88 1 0.0302102 0.0220648 0.00839776 0.000158244 -0.0150136 -0.015139 -1.59977e-09 -1.26119e-08 2.16901e-09 0.0005 1.46608e-07 
89 1 0.0306087 0.0231284 0.0100071 0.00146885 -0.00737952 -0.01857 -1.18996e-07 -9.50708e-07 1.2554e-05 0.0005 1.46608e-07 
90 1 0.0211894 0.0140541 0.0137138 0.000928227 0.000861696 -0.000609141 5.87916e-08 4.24493e-09 -8.06044e-08 0.0005 1.46608e-07 
91 1 0.0234464 0.0190086 0.00719704 0.000281559 -0.0197927 0.000709338 -2.09356e-09 -9.99407e-09 1.3331e-08 0.0005 1.46608e-07 
92 1 0.0272525 0.015751 0.0142793 0.000981131 0.00722951 0.00794671 2.92128e-07 -6.22003e-08 -4.03743e-07 0.0005 1.46608e-07 
95 1 0.0228257 0.0151756 0.0155134 -0.00968351 0.00707933 -0.0063873 0 0 -1.43822e-06 0.0005 1.46608e-07 
97 1 0.0173869 0.0241265 0.0143356 -0.000168943 -0.000232518 0.000633311 6.54641e-06 2.70936e-06 3.83056e-06 0.0005 1.46608e-07 
99 1 0.0232482 0.0181576 0.0072938 0.000225646 -0.0210493 0.00406109 -1.11587e-09 -4.69144e-09 1.0927e-08 0.0005 1.46608e-07 
102 1 0.0212187 0.0240443 0.0144592 -0.019533 -0.00750448 -0.0838426 0.000275593 -0.000646465 -0.000745522 0.0005 1.46608e-07 
103 1 0.0254647 0.022624 0.0137929 0.000123489 0.0133864 -0.0185115 -1.15157e-09 -7.60759e-09 -9.58062e-09 0.0005 1.46608e-07 
105 1 0.0186039 0.0158811 0.0157168 -0.0300119 0.00412032 -0.0295879 0 0 -1.43822e-06 0.0005 1.46608e-07 
106 1 0.0195473 0.0239796 0.0124914 0.0481279 0.179113 -0.0608607 -0.00447433 -0.00672316 0.000819187 0.0005 1.46608e-07 
108 1 0.0214483 0.0168437 0.00645098 -2.39174e-14 5.07336e-14 1.84371e-13 -1.68004e-19 -2.47281e-19 4.80691e-20 0.0005 1.46608e-07 
109 1 0.0181824 0.0191351 0.0170189 -0.0012959 0.0144233 -0.0633173 0 0 -1.43822e-06 0.0005 1.46608e-07 
110 1 0.0212677 0.0230157 0.0135374 -0.0179133 -0.01474 0.0105867 0 0 -1.43822e-06 0.0005 1.46608e-07 
112 1 0.0239863 0.0213053 0.00800484 9.5892e-05 -0.0181175 -0.0118751 -1.03549e-09 -8.71161e-09 7.05922e-09 0.0005 1.46608e-07 
116 1 0.0145755 0.0243339 0.0338266 -0.046256 0.148489 -0.190108 0 0 -1.43822e-06 0.0005 1.46608e-07 
121 1 0.0551527 0.0181697 0.00595147 -1.29861e-14 -1.76711e-14 -2.51655e-13 -4.59383e-20 3.08108e-20 6.35275e-22 0.0005 1.46608e-07 
122 1 0.0317685 0.0217614 0.014849 6.77406e-05 0.0189033 -0.0128484 1.65708e-09 -5.39935e-09 -1.10617e-08 0.0005 1.46608e-07 
124 1 0.0173477 0.0146347 0.0120134 0.00281756 0.000278495 -0.00163745 -2.00517e-06 6.39485e-07 2.04707e-06 0.0005 1.46608e-07 
125 1 0.0316039 0.0224349 0.0141217 0.000682045 0.0112854 -0.0156939 -6.7431e-09 4.53169e-09 -2.06271e-08 0.0005 1.46608e-07 
126 1 0.0173521 0.0240201 0.0126611 0.000110441 0.000183127 -0.00113468 -1.38458e-09 9.59021e-09 -5.98412e-09 0.0005 1.46608e-07 
127 1 0.0213031 0.0157495 0.0144882 0.00526168 0.000399582 -0.00175231 8.54566e-08 -2.61741e-07 -2.95901e-07 0.0005 1.46608e-07 
128 1 0.0303903 0.00406748 0.0435188 -9.67556e-317 -9.75879e-317 -3.22607e-12 0 0 0 0.0005 1.46608e-07 
130 1 0.0168888 0.021745 0.0159887 -0.0258234 -0.0423674 0.0254055 0 0 -1.43822e-06 0.0005 1.46608e-07 
131 1 0.0179249 0.0219042 0.015949 0.0222688 -0.107809 0.0725371 0 0 -1.43822e-06 0.0005 1.46608e-07 
133 1 0.02201 0.0149307 0.0149782 -0.0102103 0.00092728 -0.00444864 0 0 -1.43822e-06 0.0005 1.46608e-07 
135 1 0.0308785 0.0233684 0.0110626 0.000412622 -0.00108505 -0.0216102 2.2022e-09 -1.10621e-08 -6.20088e-10 0.0005 1.46608e-07 
137 1 0.0198044 0.0220389 0.0147999 0.000250959 0.0184661 -0.0165019 -2.97641e-08 1.65809e-07 -2.55142e-07 0.0005 1.46608e-07 
138 1 0.0172211 0.0235853 0.0156743 -0.037824 0.00303537 0.0364314 0 0 -1.43822e-06 0.0005 1.46608e-07 
139 1 0.0201924 0.0223141 0.0157142 -0.0198051 0.00659019 -0.0376363 0 0 -1.43822e-06 0.0005 1.46608e-07 
141 1 0.020456 0.0218494 0.0165842 -0.0989079 0.0507446 -0.0323454 0 0 -1.43822e-06 0.0005 1.46608e-07 
142 1 0.0322178 0.0199575 0.0156282 0.00112 0.0182258 -0.00539485 -1.29647e-08 2.20475e-08 -9.36148e-09 0.0005 1.46608e-07 
143 1 0.0260246 0.021966 0.0145434 -0.000256473 0.0147765 -0.0142279 -5.83703e-07 -1.65706e-07 2.39728e-07 0.0005 1.46608e-07 
145 1 0.0192895 0.0218937 0.0159612 -0.0144815 0.0285212 -0.0195526 3.63602e-07 2.38555e-07 -1.83497e-07 0.0005 1.46608e-07 
147 1 0.019721 0.0148695 0.0147193 -0.00711721 0.00355645 0.000864674 3.36493e-07 -7.69791e-07 -3.16583e-08 0.0005 1.46608e-07 
149 1 0.0570019 0.0175547 0.00590579 4.32406e-15 1.19126e-14 2.80767e-13 -2.93216e-19 6.88876e-20 1.69407e-21 0.0005 1.46608e-07 
150 1 0.0229751 0.0160145 0.0147462 0.00891715 0.00377447 0.00507454 2.78864e-06 1.14611e-06 4.79547e-07 0.0005 1.46608e-07 
151 1 0.0212087 0.0224322 0.0156035 -0.00126017 0.00522756 0.0114087 0 0 -1.43822e-06 0.0005 1.46608e-07 
154 1 0.0221777 0.0230232 0.0149121 0.00976881 -0.00779062 0.00758298 0 0 -1.43822e-06 0.0005 1.46608e-07 
157 1 0.0186618 0.0241272 0.0128474 0.0126784 0.0100406 -0.0137522 0.000103363 7.3038e-05 0.000210216 0.0005 1.46608e-07 
158 1 0.0233451 0.0231131 0.0146619 -0.0041355 -0.000240459 -0.0329656 0.000288292 -8.2406e-05 5.80132e-07 0.0005 1.46608e-07 
160 1 0.0298751 0.019106 0.0071729 8.0951e-05 -0.0164197 -0.00109865 5.94989e-09 -3.99515e-09 3.22797e-08 0.0005 1.46608e-07 
161 1 0.0221348 0.00230077 0.0435188 9.74157e-317 -9.69799e-317 9.23294e-13 0 0 0 0.0005 1.46608e-07 
165 1 0.0151755 0.0213053 0.0162191 -0.264879 -0.0259543 0.104251 0 0 -1.43822e-06 0.0005 1.46608e-07 
166 1 0.0170603 0.0232362 0.0146492 0.00155996 -0.000157202 0.000127932 -2.54363e-07 9.99277e-07 -1.26665e-06 0.0005 1.46608e-07 
167 1 0.0189521 0.0236632 0.0119001 0.0529823 0.0507942 0.0312363 -0.000971018 0.000130942 0.000814022 0.0005 1.46608e-07 
170 1 0.0240837 0.0200629 0.0170783 -0.0189735 0.0278301 -0.0343513 0 0 -1.43822e-06 0.0005 1.46608e-07 
171 1 0.0218383 0.0156315 0.0157895 -0.000761156 3.62379e-05 -0.00614884 0 0 -1.43822e-06 0.0005 1.46608e-07 
173 1 0.0219745 0.0231524 0.0158843 0.010344 -0.00470592 0.0126392 0 0 -1.43822e-06 0.0005 1.46608e-07 
174 1 0.0221157 0.0239819 0.0145956 0.0438198 -0.0179651 0.0694499 -0.00130361 -0.000195728 0.000299783 0.0005 1.46608e-07 
175 1 0.0237455 0.0152065 0.0150891 0.0018973 0.00221136 0.000918846 -5.88636e-07 -1.92532e-07 -3.93354e-07 0.0005 1.46608e-07 
177 1 0.0217753 0.0217665 0.0150148 0.0026897 0.0108361 -0.00829834 -4.43919e-07 1.02817e-06 -8.05563e-07 0.0005 1.46608e-07 
179 1 0.0194774 0.0230258 0.0140231 -0.00360124 -0.0345121 0.0194792 -8.73933e-05 0.00338009 -0.0013915 0.0005 1.46608e-07 
185 1 0.0271045 0.0163843 0.0148113 0.00187654 0.00565598 0.005291 -1.70632e-07 1.11449e-07 1.23184e-07 0.0005 1.46608e-07 
186 1 0.0256451 0.0231802 0.0128354 -0.00118891 0.000556277 -0.00136286 -9.79878e-08 4.63995e-07 -2.68384e-07 0.0005 1.46608e-07 
187 1 0.0243066 0.0225621 0.00904031 0.00148739 -0.0101279 -0.012271 -1.16961e-07 -2.0901e-08 6.8914e-08 0.0005 1.46608e-07 
191 1 0.0203648 0.0140334 0.0131485 -0.000447021 -0.000712642 0.0014766 7.31321e-08 1.40221e-08 6.83395e-08 0.0005 1.46608e-07 
192 1 0.0256933 0.020508 0.0165923 -0.00643384 0.02131 -0.00681791 -1.40713e-08 9.0124e-09 -3.20839e-08 0.0005 1.46608e-07 
193 1 0.0204265 0.0148243 0.0154274 -0.0137839 0.00459722 0.00987523 0 0 -1.43822e-06 0.0005 1.46608e-07 
194 1 0.0244098 0.0157783 0.0155819 -0.0019115 -0.00200744 -0.00119206 -1.13502e-07 -8.12154e-08 -4.33216e-09 0.0005 1.46608e-07 
197 1 0.0258383 0.0212671 0.0151596 0.00307049 0.0113032 -0.00898176 -6.79705e-08 1.61997e-07 -7.60162e-08 0.0005 1.46608e-07 
199 1 0.02121 0.0239325 0.0131188 -0.289678 0.244151 -0.256052 0.000135037 -0.00364951 0.0007561 0.0005 1.46608e-07 
200 1 0.0154748 0.0233944 0.0145268 0.00357534 0.00024011 0.000972424 -1.28223e-06 1.26129e-06 1.71959e-06 0.0005 1.46608e-07 
201 1 0.0202679 0.022809 0.0137547 0.0491967 0.0698582 0.0373222 -1.32036e-05 0.00457702 -0.00198315 0.0005 1.46608e-07 
205 1 0.0260896 0.0205779 0.0155374 0.000131461 0.010029 -0.00347931 1.14867e-09 4.02008e-08 -2.08852e-08 0.0005 1.46608e-07 
206 1 0.0222598 0.0155449 0.014229 0.00609704 0.004038 0.00561506 -1.06745e-06 3.63563e-07 -1.77307e-06 0.0005 1.46608e-07 
211 1 0.0220899 0.0148076 0.0107377 0.00018663 -0.00449158 0.0211761 -8.68989e-10 9.39723e-09 6.54602e-09 0.0005 1.46608e-07 
215 1 0.0268146 0.0190088 0.00598366 -1.91094e-14 -3.08041e-15 3.11554e-13 -8.86738e-22 0 0 0.0005 1.46608e-07 
218 1 0.0197409 0.0143349 0.0138694 -0.000833175 -0.000170259 0.000857058 2.06588e-07 5.95366e-07 -2.25577e-07 0.0005 1.46608e-07 
220 1 0.0153826 0.0202685 0.0157718 -0.00794581 -0.0188449 0.00575274 1.08275e-07 7.71263e-07 -1.7722e-07 0.0005 1.46608e-07 
221 1 0.0192888 0.0232612 0.0125838 0.135778 0.0804392 -0.0189404 -0.00146819 -0.000378827 0.0007817 0.0005 1.46608e-07 
223 1 0.0184645 0.0149194 0.0171113 -0.0656634 -0.0750567 0.0328681 0 0 -1.43822e-06 0.0005 1.46608e-07 
224 1 0.0179136 0.0242496 0.0134967 -0.00143414 0.000532544 0.000640384 -9.13933e-06 -9.794e-06 -3.4228e-05 0.0005 1.46608e-07 
225 1 0.0189155 0.0137713 0.0138394 -0.000565843 -8.51724e-05 0.000171803 1.29189e-07 1.0033e-07 -1.6076e-07 0.0005 1.46608e-07 
226 1 0.0303862 0.0227247 0.00915698 0.000992639 -0.0113277 -0.0141835 -1.60308e-06 8.11155e-07 4.49128e-07 0.0005 1.46608e-07 
227 1 0.0212039 0.0152388 0.0166435 0.00862706 -0.021481 0.0142092 0 0 -1.43822e-06 0.0005 1.46608e-07 
228 1 0.019553 0.0233574 0.0109094 0.00284212 0.000894802 -0.00278187 -1.93434e-06 2.49028e-06 2.8396e-05 0.0005 1.46608e-07 
229 1 0.0285658 0.0155862 0.00896544 0.00227179 -0.00377058 0.00469143 3.78214e-08 2.88646e-08 -1.33976e-07 0.0005 1.46608e-07 
230 1 0.0179656 0.022958 0.01523 0.00358995 0.0137312 0.0288039 0 0 -1.43822e-06 0.0005 1.46608e-07 
232 1 0.0221996 0.00109062 0.0435188 9.58743e-317 9.68145e-317 4.97437e-14 0 0 0 0.0005 1.46608e-07 
235 1 0.0162455 0.01609 0.0148146 0.00479438 0.00336619 0.0034244 5.15091e-08 1.43636e-07 -8.15977e-07 0.0005 1.46608e-07 
237 1 0.0282649 0.0150553 0.0100004 0.000123213 -0.00809433 0.0203597 -7.41045e-10 8.66025e-09 9.61039e-09 0.0005 1.46608e-07 
239 1 0.019379 0.023115 0.0100879 0.00185491 0.00239797 -7.43935e-05 4.03679e-06 7.91309e-06 2.16013e-05 0.0005 1.46608e-07 
240 1 0.0235854 0.0233086 0.0155037 -0.0121419 0.00284664 -0.00263184 0.000121879 -0.000106556 -0.000157962 0.0005 1.46608e-07 
241 1 0.0211356 0.0208305 0.0155773 7.43606e-06 0.0195732 -0.00842654 6.35918e-11 1.18023e-09 -1.71811e-08 0.0005 1.46608e-07 
242 1 0.0174641 0.0142663 0.0129357 0.00491286 7.62301e-05 -0.00318115 -1.8791e-07 1.14868e-06 -1.53537e-06 0.0005 1.46608e-07 
246 1 0.0143984 0.0227784 0.0153338 -0.0131477 -0.0123004 -6.3511e-05 -1.55637e-06 5.36011e-06 1.52055e-06 0.0005 1.46608e-07 
247 1 0.0311728 0.0233144 0.0124867 0.000313186 0.00422828 -0.0129425 1.24691e-07 -2.6861e-08 1.03485e-07 0.0005 1.46608e-07 
248 1 0.0216504 0.0174787 0.0156584 0.00065928 0.0160576 0.00631904 -9.42179e-08 1.45771e-07 3.9444e-08 0.0005 1.46608e-07 
249 1 0.0164383 0.0154312 0.0140875 0.00494226 0.00184219 0.00462886 -1.63272e-07 -5.20271e-07 -6.08987e-07 0.0005 1.46608e-07 
250 1 0.0161487 0.014595 0.0135669 -0.00283504 0.00260467 -0.000802862 4.1075e-07 2.18273e-07 -9.0642e-07 0.0005 1.46608e-07 
251 1 0.0208458 0.0158384 0.0156581 0.00364576 0.0131138 0.00793753 2.25414e-07 -1.80828e-07 -2.83513e-07 0.0005 1.46608e-07 
252 1 0.0212617 0.0233418 0.0151746 0.00529664 0.00683413 0.0132261 0 0 -1.43822e-06 0.0005 1.46608e-07 
253 1 0.0168231 0.0239089 0.0135023 -4.68841e-05 -0.000701468 -0.0013254 -2.18112e-08 -2.27472e-09 -3.65752e-08 0.0005 1.46608e-07 
254 1 0.0601252 -0.0121487 0.0581769 0.331065 -0.297936 -0.246927 0 0 -1.43822e-06 0.0005 1.46608e-07 
256 1 0.0220561 0.0146887 0.0167938 -0.118166 0.0863768 -0.173702 0 0 -1.43822e-06 0.0005 1.46608e-07 
257 1 0.0203273 0.0232196 0.0129775 0.0128322 0.652274 -0.500245 -0.00299099 -0.00293466 0.00114415 0.0005 1.46608e-07 
258 1 0.0269086 0.0171482 0.0152184 0.00190763 0.00909591 0.00476803 3.95419e-08 3.49656e-08 1.64881e-08 0.0005 1.46608e-07 
260 1 0.108836 0.0200055 0.00584234 7.55068e-16 -1.26255e-15 -6.9775e-15 2.87197e-20 6.88214e-22 3.38813e-21 0.0005 1.46608e-07 
262 1 0.0205409 0.0227141 0.0148628 -0.000158135 0.0208503 -0.0201312 0 0 -1.43822e-06 0.0005 1.46608e-07 
263 1 0.0230163 0.0146594 0.0146781 0.00037256 0.000251802 0.00140712 1.2374e-06 1.0925e-06 2.23406e-09 0.0005 1.46608e-07 
268 1 0.0165781 0.0226553 0.0153478 -0.00336912 0.00444234 -0.00840735 0 0 -1.43822e-06 0.0005 1.46608e-07 
269 1 0.0202772 0.0232468 0.0104838 0.00133306 -0.00349419 -0.0112777 -9.36158e-06 -3.29933e-06 -1.70278e-05 0.0005 1.46608e-07 
270 1 0.0148715 0.0218766 0.0149283 0.00862012 0.00603805 -0.00456582 3.64034e-07 -1.15684e-06 -6.81665e-07 0.0005 1.46608e-07 
271 1 0.0225276 0.0150261 0.0133855 0.0047477 0.000275669 0.00232017 -4.27393e-07 -5.53875e-07 -1.1956e-06 0.0005 1.46608e-07 
272 1 0.0185169 0.0140099 0.012954 -0.000439966 -1.6607e-05 -0.000146953 3.9299e-07 -2.51424e-07 -4.10358e-07 0.0005 1.46608e-07 
273 1 0.0198054 0.015624 0.0155218 -0.00110536 -0.00662211 -0.00792347 2.03843e-09 -2.6551e-07 -1.98087e-07 0.0005 1.46608e-07 
274 1 0.0177918 0.0150311 0.0148602 0.00174764 0.00207061 0.0016033 -2.65973e-07 1.30396e-08 3.57602e-08 0.0005 1.46608e-07 
275 1 0.0152507 0.0159273 0.0146791 0.000383479 0.0037456 0.00549452 -1.05825e-08 -2.03577e-07 -1.6064e-07 0.0005 1.46608e-07 
276 1 0.0163041 0.0238846 0.0147238 0.00312682 0.000218283 0.000354467 -5.36019e-07 -1.24826e-07 3.9766e-07 0.0005 1.46608e-07 
277 1 0.0228161 0.0236266 0.0144307 0.0361212 0.00104323 0.0345439 0.000105078 2.29895e-05 0.00125872 0.0005 1.46608e-07 
282 1 0.0168994 0.0146862 0.0145694 0.00542502 -0.00374804 -0.00375429 9.17423e-09 -1.21947e-07 -1.26114e-06 0.0005 1.46608e-07 
283 1 0.0249646 0.0164613 0.0160803 -0.000959557 0.00143144 0.00290047 -1.92931e-08 2.38551e-08 2.90012e-08 0.0005 1.46608e-07 
284 1 0.00937694 0.00505359 0.0435188 -9.68799e-317 -9.69932e-317 9.23294e-13 0 0 0 0.0005 1.46608e-07 
285 1 0.0226711 0.0228153 0.0165498 -0.0119249 0.0334792 0.0351581 0 0 -1.43822e-06 0.0005 1.46608e-07 
286 1 0.0182239 0.0238378 0.015941 0.0318992 -0.0177386 -0.0477496 -1.01536e-07 -4.15887e-07 -9.16047e-07 0.0005 1.46608e-07 
288 1 0.01459 0.0186618 0.0159266 0.0005129 0.020684 0.00176956 -1.83108e-10 1.98987e-09 -1.38889e-08 0.0005 1.46608e-07 
289 1 0.0142323 0.0224419 0.014407 0.00329505 0.00326714 -0.00255377 4.50484e-07 -7.43726e-06 1.46997e-06 0.0005 1.46608e-07 
291 1 0.0166021 0.0147649 0.0126853 0.0034205 -0.00216736 -0.00425067 0 0 -1.43822e-06 0.0005 1.46608e-07 
293 1 -0.0173965 0.019442 0.053455 -0.215278 -0.0283746 -0.377673 0 0 -1.43822e-06 0.0005 1.46608e-07 
294 1 0.023223 0.015378 0.014012 0.00545766 0.000171734 0.00273921 6.35034e-07 3.68506e-07 -9.07674e-07 0.0005 1.46608e-07 
298 1 0.0185428 0.0228186 0.00972481 0.00226137 -0.00920528 -0.0149154 2.59422e-06 1.17498e-05 1.82477e-05 0.0005 1.46608e-07 
299 1 0.024947 0.0190645 0.00586966 2.61613e-15 3.85937e-16 -4.25289e-14 4.32781e-20 -2.2881e-19 2.11758e-22 0.0005 1.46608e-07 
300 1 0.0245332 0.0229781 0.00968906 0.00255173 -0.00485494 -0.0139732 -6.86561e-08 1.24226e-07 2.60052e-07 0.0005 1.46608e-07 
