ITEM: TIMESTEP
25600000
ITEM: NUMBER OF ATOMS
107
ITEM: BOX BOUNDS ff ff ff
-0.02 0.43
-0.02 0.06
-0.02 0.07
ITEM: ATOMS id type x y z vx vy vz fx fy fz radius mass 
1 1 0.0131643 0.0208596 0.0155583 0.00786476 0.0133308 -0.00555674 1.70253e-09 1.33827e-09 -5.53327e-09 0.0005 1.46608e-07 
2 1 0.0242546 0.020213 0.00583854 -9.08582e-15 -1.46377e-15 1.48131e-13 0 -6.61744e-23 0 0.0005 1.46608e-07 
4 1 0.0192576 0.0146232 0.0119514 0.00534433 0.00116865 -0.00117331 -2.44904e-08 9.41924e-08 9.8481e-07 0.0005 1.46608e-07 
5 1 0.0552529 0.0189972 0.0058882 -1.27501e-17 -1.82553e-17 -2.5714e-16 -2.51463e-22 1.32349e-23 0 0.0005 1.46608e-07 
15 1 0.00938048 0.0183393 0.00587271 3.64549e-15 5.40891e-16 -3.69009e-14 -2.14405e-21 3.40137e-21 -2.11758e-22 0.0005 1.46608e-07 
16 1 0.0260391 0.0196534 0.00594246 2.09856e-14 3.38094e-15 -3.42138e-13 -6.61744e-23 6.63399e-22 0 0.0005 1.46608e-07 
17 1 0.044496 0.0177792 0.00743961 0.000120308 -0.0203423 0.00637571 -5.32612e-10 -1.79602e-09 1.21001e-08 0.0005 1.46608e-07 
18 1 0.0366849 0.0218066 0.0435188 -9.6879e-317 9.73506e-317 2.68131e-13 0 0 0 0.0005 1.46608e-07 
20 1 0.0497002 0.0150964 0.00988687 0.000929612 -0.00286917 0.00698715 -0.00960108 0.00845035 -0.00142036 0.0005 1.46608e-07 
24 1 0.0431338 0.01479 0.0120412 9.68882e-05 0.00175556 0.0219719 -1.01478e-09 1.14755e-08 3.81103e-09 0.0005 1.46608e-07 
25 1 0.0339249 0.0173116 0.00624552 -9.68371e-16 -9.43103e-15 -2.80565e-14 -4.38842e-19 -5.04514e-20 2.92226e-20 0.0005 1.46608e-07 
27 1 0.000591717 0.0149731 0.0435188 9.71467e-317 9.75789e-317 -8.23806e-13 0 0 0 0.0005 1.46608e-07 
28 1 0.0472101 0.0214989 0.0150833 0.00127607 0.0142761 -0.00993681 -3.00615e-09 2.77814e-08 -4.43792e-08 0.0005 1.46608e-07 
32 1 0.0364748 0.0208476 0.00623738 4.373e-15 -1.48261e-14 6.83465e-14 -2.35581e-21 -1.32349e-21 0 0.0005 1.46608e-07 
33 1 0.0325922 0.0182289 0.00727879 0.000388802 -0.0201 0.00176815 3.89503e-09 6.12993e-09 1.57629e-08 0.0005 1.46608e-07 
37 1 0.049528 0.0194806 0.00601095 5.82576e-15 -1.24422e-14 -1.29438e-13 -1.17791e-21 -2.12552e-20 1.90582e-21 0.0005 1.46608e-07 
41 1 0.0285392 0.0232892 0.0125516 0.00156568 0.00408843 -0.0163428 -3.94115e-09 -1.27807e-08 -1.19422e-08 0.0005 1.46608e-07 
44 1 0.0378729 0.0156231 0.00893407 0.000148148 -0.012927 0.0169226 -3.94063e-10 5.58104e-09 1.08196e-08 0.0005 1.46608e-07 
47 1 0.0239046 0.0188438 0.0159514 0.000493615 0.0209339 0.00114731 -2.24877e-10 1.93786e-09 -1.42938e-08 0.0005 1.46608e-07 
49 1 0.003617 0.0285782 0.0435188 -9.68849e-317 -9.75601e-317 2.88878e-12 0 0 0 0.0005 1.46608e-07 
52 1 0.0860181 0.0183082 0.00577269 -1.22372e-15 3.67084e-14 1.26768e-13 -2.07325e-20 -6.88214e-22 -2.11758e-22 0.0005 1.46608e-07 
57 1 0.0177449 0.0174882 0.00600758 2.62317e-15 1.02294e-14 2.12804e-14 -1.08526e-21 1.37643e-21 -6.35275e-22 0.0005 1.46608e-07 
59 1 0.0480458 0.0179724 0.0156418 0.000521027 0.0185122 0.00459938 3.08335e-06 2.62092e-07 -1.91707e-06 0.0005 1.46608e-07 
63 1 0.0262238 0.0166082 0.00796544 0.00107227 -0.0162994 0.0110974 -7.4622e-08 -5.88938e-08 1.33611e-07 0.0005 1.46608e-07 
65 1 0.112778 0.0179068 0.0059233 9.07216e-16 3.45779e-15 1.41924e-14 6.78817e-20 -2.99638e-20 2.75286e-21 0.0005 1.46608e-07 
67 1 0.0475211 0.0202912 0.0156417 -3.26773e-05 0.0164401 -0.00363372 7.7154e-10 4.29151e-09 -1.62509e-08 0.0005 1.46608e-07 
68 1 0.0452523 0.0173614 0.00620617 -3.11468e-15 -1.74673e-14 -1.20236e-13 6.08143e-21 -2.64698e-21 4.23516e-22 0.0005 1.46608e-07 
73 1 0.0349285 0.0181778 0.00592251 6.3145e-16 6.72176e-15 2.00029e-14 -9.08575e-21 -1.11173e-21 4.23516e-22 0.0005 1.46608e-07 
74 1 0.039309 0.0213466 0.00784208 0.000181714 -0.0179425 -0.0116734 -4.588e-11 -1.09091e-08 5.68417e-09 0.0005 1.46608e-07 
76 1 0.0317502 0.0152319 0.00948386 0.00150334 -0.00758707 0.0160351 -1.99169e-08 -2.21418e-08 4.99987e-08 0.0005 1.46608e-07 
79 1 0.0551402 0.017971 0.00596606 -2.82235e-15 -3.83406e-15 -5.46135e-14 -7.94093e-23 2.64698e-23 -2.11758e-22 0.0005 1.46608e-07 
84 1 0.0408729 0.0225205 0.0139444 -9.7584e-05 0.014369 -0.0173534 -1.32113e-09 -7.19409e-09 -5.98694e-09 0.0005 1.46608e-07 
87 1 0.0461914 0.0233789 0.0112025 0.0016316 -0.00075355 -0.0150452 2.07216e-06 -9.85677e-07 -1.77135e-05 0.0005 1.46608e-07 
88 1 0.0454466 0.0219481 0.00829373 0.000430324 -0.0137054 -0.0126725 -1.47565e-08 5.06906e-09 9.41462e-09 0.0005 1.46608e-07 
89 1 0.0484677 0.0160899 0.0146098 0.000274362 0.0151147 0.0141315 -2.20194e-09 1.28258e-08 -2.21304e-09 0.0005 1.46608e-07 
90 1 0.0390658 0.0201633 0.00735689 0.00064375 -0.0192075 -0.00428609 -5.25664e-09 -1.16416e-08 6.28986e-09 0.0005 1.46608e-07 
92 1 0.0452651 0.0210866 0.00770379 0.000130772 -0.0186984 -0.0102536 -2.29209e-10 -1.06797e-08 6.62915e-09 0.0005 1.46608e-07 
97 1 0.027372 0.021489 0.00796362 0.000808764 -0.0123815 -0.00828967 -8.33905e-09 -8.53735e-08 -2.32013e-08 0.0005 1.46608e-07 
103 1 0.0437004 0.0152463 0.00971772 7.45489e-05 -0.00834471 0.0189986 -5.52396e-10 7.40205e-09 1.01563e-08 0.0005 1.46608e-07 
108 1 0.0214483 0.0168437 0.00645098 -2.39274e-14 5.08564e-14 1.84336e-13 -5.78365e-20 6.69685e-20 -2.92226e-20 0.0005 1.46608e-07 
109 1 0.0332812 0.0214011 0.00788911 0.00277881 -0.00651435 -0.00250639 1.08562e-07 5.08476e-07 3.32862e-07 0.0005 1.46608e-07 
112 1 0.0418376 0.018772 0.015771 0.00047024 0.0203483 0.00126607 -2.34037e-10 9.86341e-09 -8.17214e-09 0.0005 1.46608e-07 
121 1 0.0586827 0.0172628 0.00598816 1.03766e-14 -2.15398e-14 -2.65e-13 -2.71778e-20 -2.11758e-22 -1.05879e-21 0.0005 1.46608e-07 
122 1 0.0792478 0.0194315 0.00576454 1.19651e-14 4.01635e-14 1.70229e-13 2.1021e-19 -1.51407e-20 -1.07997e-20 0.0005 1.46608e-07 
124 1 0.0244813 0.0163253 0.0150292 0.00430011 0.00367287 0.00156575 1.02598e-08 3.38923e-08 -9.93715e-08 0.0005 1.46608e-07 
125 1 0.0499784 0.0159174 0.00867293 0.000311239 -0.0144565 0.0156712 -3.96761e-09 4.27366e-09 1.13078e-08 0.0005 1.46608e-07 
128 1 0.0303903 0.00406748 0.0435188 -9.67556e-317 -9.75879e-317 -3.22607e-12 0 0 0 0.0005 1.46608e-07 
130 1 0.0362709 0.0170065 0.015172 0.00166098 0.0149782 0.00691232 4.66567e-06 4.77346e-06 -3.38086e-06 0.0005 1.46608e-07 
131 1 0.0503978 0.0172251 0.00759605 0.000128326 -0.0202642 0.00899265 -9.55985e-10 -3.43398e-09 1.5046e-08 0.0005 1.46608e-07 
133 1 0.0438472 0.0171169 0.00621343 5.24119e-16 -1.55514e-15 -8.51076e-15 3.84871e-20 1.45054e-20 -6.35275e-22 0.0005 1.46608e-07 
135 1 0.0461247 0.0223731 0.00873175 0.000396393 -0.00992772 -0.0187185 -2.51205e-08 1.33523e-08 3.62545e-08 0.0005 1.46608e-07 
137 1 0.0473953 0.0193073 0.0059321 4.74334e-15 -1.01791e-14 -1.05707e-13 -1.57363e-20 -6.11452e-21 0 0.0005 1.46608e-07 
139 1 0.0399016 0.022942 0.00966603 0.000220553 -0.00907442 -0.0196085 -2.54244e-09 -1.28916e-08 1.71715e-09 0.0005 1.46608e-07 
141 1 0.0364333 0.0162426 0.0147517 0.00201219 0.0106107 0.00908659 1.04365e-05 -7.26622e-06 -3.50148e-06 0.0005 1.46608e-07 
142 1 0.0506758 0.0187092 0.00716211 0.000962747 -0.0183892 0.00164895 -3.76963e-06 1.90991e-05 -4.55579e-06 0.0005 1.46608e-07 
143 1 0.0438992 0.0157435 0.00881249 0.000334464 -0.0106956 0.0145759 -7.84604e-08 -5.23267e-07 3.52894e-07 0.0005 1.46608e-07 
147 1 0.0411064 0.0217888 0.0147733 0.000293212 0.0159014 -0.0135213 -1.6253e-09 -2.82065e-09 -1.21808e-08 0.0005 1.46608e-07 
149 1 0.0584376 0.0191695 0.00582359 8.13319e-15 -1.68459e-14 -2.07263e-13 4.75794e-21 9.41001e-21 -6.35275e-22 0.0005 1.46608e-07 
150 1 0.0219464 0.0140197 0.0249101 0.0486955 -0.153736 -0.148222 0 0 -1.43822e-06 0.0005 1.46608e-07 
157 1 0.0202574 0.0146218 0.0119381 0.00533299 0.000878556 -0.00138682 3.3206e-07 -1.40184e-08 3.57525e-07 0.0005 1.46608e-07 
158 1 0.020084 0.0201843 0.0061153 5.51668e-15 -2.47701e-15 5.04898e-14 3.86459e-21 5.49248e-21 0 0.0005 1.46608e-07 
160 1 0.0477089 0.01933 0.0157954 -0.000294009 0.0228246 0.000739636 1.63931e-09 -1.70592e-08 -1.47411e-08 0.0005 1.46608e-07 
161 1 0.0221348 0.00230077 0.0435188 9.74157e-317 -9.69799e-317 9.23294e-13 0 0 0 0.0005 1.46608e-07 
165 1 0.201805 0.0186174 0.00570934 -3.8561e-20 -8.56408e-22 -1.30474e-21 0 0 0 0.0005 1.46608e-07 
166 1 0.0424882 0.0160387 0.0145837 0.000433298 0.00925176 0.00953014 -6.8544e-10 -1.07725e-08 -1.56864e-08 0.0005 1.46608e-07 
167 1 0.0297653 0.0190428 0.0158149 0.00193752 0.0135897 -0.000105364 8.66912e-09 -5.39495e-09 -8.71037e-09 0.0005 1.46608e-07 
173 1 0.0830234 0.0186618 0.00583976 1.15417e-14 3.23691e-14 -1.39059e-13 5.41307e-21 4.2881e-21 1.27055e-21 0.0005 1.46608e-07 
174 1 0.0288743 0.022512 0.0140348 0.000122441 0.0134321 -0.017158 -1.34741e-09 -5.90516e-09 -9.85753e-09 0.0005 1.46608e-07 
179 1 0.067984 0.0193424 0.00575613 3.91017e-15 7.52235e-15 2.61625e-13 8.77473e-21 2.11758e-21 -2.11758e-22 0.0005 1.46608e-07 
185 1 0.0450365 0.0200474 0.00731017 0.000614784 -0.0195584 -0.00548173 6.96979e-10 3.72038e-08 -1.49615e-10 0.0005 1.46608e-07 
186 1 0.043427 0.0148479 0.0107999 0.000757016 -0.00320966 0.0170459 7.48185e-09 2.47841e-08 -1.2547e-08 0.0005 1.46608e-07 
187 1 0.0420482 0.017909 0.0156408 0.00145146 0.0174509 0.00537181 -3.10727e-09 6.97075e-09 -8.83786e-09 0.0005 1.46608e-07 
191 1 0.0294658 0.0205051 0.0155378 0.000110378 0.0203275 -0.00695386 -1.90693e-10 1.46743e-09 -1.20315e-08 0.0005 1.46608e-07 
193 1 0.0253288 0.0204564 0.00590683 9.29105e-15 1.49752e-15 -1.51478e-13 0 -3.80503e-23 0 0.0005 1.46608e-07 
194 1 0.0416357 0.0196956 0.0157169 -0.000251907 0.0202185 -0.00293902 1.27569e-09 5.82627e-08 -2.69197e-08 0.0005 1.46608e-07 
197 1 0.0440985 0.0163155 0.00815141 0.000699526 -0.0154138 0.0116971 -6.52331e-08 -2.7134e-06 3.1208e-06 0.0005 1.46608e-07 
200 1 0.0309521 0.0150853 0.0129555 -7.54117e-05 0.00686578 0.0207812 -4.10855e-10 1.2081e-08 -1.8575e-10 0.0005 1.46608e-07 
205 1 0.0383457 0.0197753 0.00590075 6.04479e-15 -2.8949e-14 1.43234e-13 3.15057e-20 -1.92171e-20 -3.81165e-21 0.0005 1.46608e-07 
215 1 0.026935 0.0188837 0.00598981 1.43031e-14 2.30417e-15 -2.33189e-13 2.64698e-23 2.10104e-22 0 0.0005 1.46608e-07 
225 1 0.032876 0.0194769 0.00730454 0.00085996 -0.0201028 -0.00212793 1.89303e-09 2.65083e-09 1.31997e-08 0.0005 1.46608e-07 
226 1 0.0482599 0.017098 0.0153528 0.000418265 0.0112257 0.00641361 -6.9162e-08 -1.55823e-06 -7.87853e-07 0.0005 1.46608e-07 
227 1 0.0371076 0.0148208 0.0121565 0.000100836 0.00206408 0.0231458 1.20275e-09 9.31246e-09 6.1451e-10 0.0005 1.46608e-07 
229 1 0.0469351 0.0223902 0.0142882 0.00080805 0.00914565 -0.0110754 -1.39294e-07 8.46652e-07 -1.59444e-06 0.0005 1.46608e-07 
232 1 0.0221996 0.00109062 0.0435188 9.58743e-317 9.68145e-317 4.97437e-14 0 0 0 0.0005 1.46608e-07 
237 1 0.0465333 0.023166 0.0125792 0.000135748 0.00609958 -0.0208942 -2.74483e-10 -9.38581e-09 -7.52536e-09 0.0005 1.46608e-07 
241 1 0.0376839 0.0150913 0.00987215 0.00106393 -0.00346016 0.0091266 2.28494e-08 2.11162e-08 -8.06836e-08 0.0005 1.46608e-07 
242 1 0.0357726 0.0189346 0.0157364 5.948e-05 0.0225144 0.00273149 -2.13772e-10 3.57992e-09 -1.13027e-08 0.0005 1.46608e-07 
247 1 0.0495117 0.0149417 0.0106329 0.00811858 -0.0025276 -0.00670194 0.000160054 -0.000148714 6.55254e-05 0.0005 1.46608e-07 
252 1 0.0561606 0.0173315 0.00595822 1.40319e-14 1.90624e-14 2.71525e-13 -1.05879e-22 1.05879e-22 0 0.0005 1.46608e-07 
253 1 0.0895649 0.0187731 0.00575225 -1.31519e-14 1.89673e-14 2.53773e-13 -5.76207e-19 -3.81694e-20 -2.71051e-20 0.0005 1.46608e-07 
256 1 0.0342987 0.023377 0.011611 0.000457707 0.000729801 -0.0206618 -1.20112e-09 -9.63669e-09 -6.86361e-09 0.0005 1.46608e-07 
257 1 0.0336186 0.0223785 0.0087369 0.000779977 -0.0119724 -0.0154927 -5.61653e-09 -1.30015e-08 -2.18016e-09 0.0005 1.46608e-07 
258 1 0.0448063 0.0192287 0.00717235 0.00143897 -0.0150403 -8.33941e-05 -1.25754e-08 -3.58616e-08 7.12884e-09 0.0005 1.46608e-07 
260 1 0.108836 0.0200055 0.00584234 7.5225e-16 -1.26662e-15 -6.97725e-15 -2.30022e-20 1.27055e-21 -2.96462e-21 0.0005 1.46608e-07 
268 1 0.0282105 0.0233882 0.0112797 0.000684048 -0.00020155 -0.0213906 -3.90962e-09 -1.03126e-08 -1.10933e-08 0.0005 1.46608e-07 
269 1 0.0388097 0.0191477 0.00722854 5.53235e-05 -0.0219856 -0.00103657 -1.58945e-09 -7.30589e-09 1.12652e-08 0.0005 1.46608e-07 
270 1 0.0346489 0.0231262 0.0129399 0.000198458 0.00764724 -0.0201186 -3.23567e-10 -8.65065e-09 -9.00115e-09 0.0005 1.46608e-07 
271 1 0.0406003 0.0231652 0.012782 0.000856185 0.00445528 -0.020046 -3.56968e-08 6.71992e-08 -1.55301e-07 0.0005 1.46608e-07 
274 1 0.0250509 0.0148464 0.012367 0.000358469 0.00441324 0.0196374 -3.63499e-09 1.21643e-08 6.92906e-09 0.0005 1.46608e-07 
275 1 0.0348746 0.0224781 0.0141752 0.000188019 0.0163559 -0.0171854 9.82368e-09 1.36529e-09 -2.61723e-08 0.0005 1.46608e-07 
277 1 0.0305816 0.0157717 0.0143147 0.00123772 0.0129177 0.0140704 -3.77588e-08 3.25943e-07 2.46576e-07 0.0005 1.46608e-07 
284 1 0.00937694 0.00505359 0.0435188 -9.68799e-317 -9.69932e-317 9.23294e-13 0 0 0 0.0005 1.46608e-07 
288 1 0.0457039 0.018685 0.00600217 -6.97926e-15 -3.90029e-14 -2.68502e-13 5.56527e-21 -1.00585e-21 -2.11758e-22 0.0005 1.46608e-07 
291 1 0.0320797 0.0162057 0.00824882 0.000604942 -0.0144858 0.0134087 -3.4663e-09 -1.78472e-09 1.64006e-08 0.0005 1.46608e-07 
294 1 0.0239797 0.0191467 0.00594569 -2.27383e-14 -4.66217e-14 -1.52821e-13 -1.53525e-21 -1.69407e-21 4.23516e-22 0.0005 1.46608e-07 
299 1 0.0254808 0.018723 0.00589902 -2.07794e-14 -3.37543e-15 3.38791e-13 4.43369e-21 -6.65831e-20 -6.35275e-22 0.0005 1.46608e-07 
300 1 0.042828 0.0152412 0.0135308 0.00045236 0.00954349 0.0187599 -7.74718e-10 1.24342e-08 5.57848e-10 0.0005 1.46608e-07 
