ITEM: TIMESTEP
800000
ITEM: NUMBER OF ATOMS
150
ITEM: BOX BOUNDS ff ff ff
-0.02 0.43
-0.02 0.06
-0.02 0.07
ITEM: ATOMS id type x y z vx vy vz fx fy fz radius mass 
1 1 0.0205985 0.0227943 0.0142566 0.00152106 0.00421296 -0.00494172 -3.46578e-06 -1.10264e-06 -1.69787e-06 0.0005 1.46608e-07 
2 1 0.0175149 0.0230163 0.0149571 0.000261771 -0.000686242 -0.000405809 -4.23958e-07 6.33463e-07 -1.22608e-07 0.0005 1.46608e-07 
3 1 0.0245025 0.0221368 0.0157589 0.000421143 -0.000383937 0.000411286 -2.08073e-07 1.69055e-07 -1.06129e-07 0.0005 1.46608e-07 
4 1 0.0175378 0.0220705 0.0157934 0.000737058 0.00160673 -0.000829794 -1.04451e-07 -1.60746e-07 -2.82484e-07 0.0005 1.46608e-07 
5 1 0.0225246 0.0158223 0.0145524 0.0060922 0.00551867 0.00548451 -2.45464e-07 -3.53291e-07 -4.11989e-07 0.0005 1.46608e-07 
6 1 0.0173503 0.0146317 0.0120198 -0.0002198 -0.000724794 0.00194517 3.26061e-07 -1.74549e-07 -5.2537e-08 0.0005 1.46608e-07 
7 1 0.0173783 0.0142796 0.012955 1.81961e-05 -0.000776958 0.00173008 -5.09773e-07 2.83778e-07 -1.34475e-07 0.0005 1.46608e-07 
8 1 0.0223759 0.0219005 0.0159534 -0.000315199 -0.00168156 -0.000298057 -2.0052e-08 -3.65765e-07 -6.74983e-07 0.0005 1.46608e-07 
9 1 0.0206648 0.0241146 0.0131916 0.00232533 -2.57603e-05 -0.00208129 5.00317e-07 -4.21032e-07 -7.59835e-09 0.0005 1.46608e-07 
10 1 0.0195482 0.0232796 0.0127997 0.00134998 0.00425055 -0.0144748 2.03e-07 -1.41009e-07 1.24566e-06 0.0005 1.46608e-07 
11 1 0.0147205 0.0226461 0.0141122 0.00746965 0.00340964 -0.00417501 8.92265e-08 1.00046e-07 -2.38405e-07 0.0005 1.46608e-07 
12 1 0.0199611 0.0234215 0.0113413 0.00144658 0.000866853 -0.00287233 -3.53229e-08 -1.74946e-07 -7.73358e-07 0.0005 1.46608e-07 
13 1 0.0163314 0.0237271 0.0138661 0.000514104 0.00164549 0.000639665 4.60313e-07 1.30037e-07 -1.27019e-07 0.0005 1.46608e-07 
14 1 0.0180645 0.0239054 0.0147303 0.000252483 0.000141822 -0.000589199 -1.89247e-08 1.6601e-06 1.75052e-07 0.0005 1.46608e-07 
15 1 0.0222542 0.0166978 0.0152801 3.40896e-05 0.0194695 0.012089 -1.52021e-08 1.42227e-07 6.87093e-08 0.0005 1.46608e-07 
16 1 0.0171687 0.0146286 0.0138684 -0.000276957 -0.000538365 0.000785224 1.91215e-07 -7.73016e-07 -2.56946e-06 0.0005 1.46608e-07 
17 1 0.0216735 0.0238791 0.0136065 0.000803391 0.00109164 -0.000762345 -4.71657e-07 7.04641e-08 -3.49593e-07 0.0005 1.46608e-07 
18 1 0.0208014 0.0234479 0.0117225 -1.79091e-05 0.000205504 0.000105755 -3.44763e-07 1.39855e-07 2.05565e-07 0.0005 1.46608e-07 
19 1 0.018059 0.0240749 0.0130473 -0.000142644 -0.000492349 0.000315026 3.35462e-07 1.04045e-08 -2.41355e-06 0.0005 1.46608e-07 
20 1 0.0219498 0.0148635 0.0129911 0.00410722 0.00106484 0.00251315 8.75063e-08 1.80629e-08 -1.359e-06 0.0005 1.46608e-07 
21 1 0.020524 0.0231623 0.0131712 0.00284852 0.00235508 -0.00939117 2.13926e-06 -8.91522e-07 5.16663e-06 0.0005 1.46608e-07 
22 1 0.0189113 0.0136765 0.0135967 0.00138497 0.000401343 -0.00176613 -4.34926e-07 1.6195e-07 -5.57537e-07 0.0005 1.46608e-07 
23 1 0.0170905 0.023996 0.0132764 -0.000196924 0.000262102 0.000466058 1.4053e-07 -2.58239e-07 -1.91034e-07 0.0005 1.46608e-07 
24 1 0.0216729 0.0154736 0.0141609 0.00181886 0.00937794 0.0114987 2.0755e-07 -2.5303e-07 -3.71484e-07 0.0005 1.46608e-07 
25 1 0.0196131 0.0140038 0.0129641 0.000867791 0.00105369 -0.00184353 7.63983e-08 -6.11348e-08 -8.65871e-08 0.0005 1.46608e-07 
26 1 0.0158438 0.0224892 0.0143345 0.00424411 0.00246261 -0.000319301 -2.60552e-08 6.6061e-09 1.60954e-08 0.0005 1.46608e-07 
27 1 0.0194226 0.0232774 0.010542 0.000985214 0.00138953 -0.00231713 -1.44272e-07 7.66669e-08 4.1926e-07 0.0005 1.46608e-07 
28 1 0.0181038 0.0142647 0.0136428 0.000232529 -0.000167967 0.00163341 -6.44531e-07 3.85632e-07 3.09381e-07 0.0005 1.46608e-07 
29 1 0.0182993 0.0225927 0.0154097 0.00111352 -0.000181315 -0.00167465 -2.28188e-07 -7.33467e-07 2.66616e-08 0.0005 1.46608e-07 
30 1 0.0193442 0.0240836 0.0143862 0.0173922 0.00896095 -0.0229786 0 0 -1.43822e-06 0.0005 1.46608e-07 
31 1 0.0185485 0.0237738 0.0138654 0.00321165 0.000467891 7.64452e-05 -1.68331e-07 -1.20725e-06 2.72183e-07 0.0005 1.46608e-07 
32 1 0.0214107 0.0234285 0.0125182 0.00122242 -0.00334399 -0.00981174 0 0 -1.43822e-06 0.0005 1.46608e-07 
33 1 0.0208924 0.0230885 0.0152421 0.00135937 0.00173738 -0.00127638 1.00085e-06 -2.28275e-08 -3.68896e-08 0.0005 1.46608e-07 
34 1 0.0178605 0.0197257 0.00724103 0.000783439 -0.0196541 -0.00291244 -5.56356e-09 -1.57344e-08 8.24559e-09 0.0005 1.46608e-07 
35 1 0.0197542 0.0229617 0.0137212 0.00130002 0.00302757 -0.0151253 8.3682e-07 -9.48537e-07 3.35025e-06 0.0005 1.46608e-07 
36 1 0.0197779 0.0244324 0.0135362 0.00180616 -0.00107247 -0.00199736 -2.58504e-07 -7.79227e-08 -9.12311e-08 0.0005 1.46608e-07 
37 1 0.0211041 0.0175774 0.015708 0.00052038 0.0194247 0.00663472 4.93731e-10 2.91466e-09 -1.52662e-08 0.0005 1.46608e-07 
38 1 0.0202602 0.0225089 0.0157561 0.000657048 0.0013505 -0.00260481 1.00915e-06 -8.65554e-09 -1.28574e-06 0.0005 1.46608e-07 
39 1 0.0222286 0.0234002 0.0150636 0.00185356 -0.0004944 0.000612886 6.988e-07 -1.2422e-07 -1.84783e-07 0.0005 1.46608e-07 
40 1 0.0214132 0.0234976 0.0144932 0.00306641 5.31441e-05 -0.000864076 2.54821e-07 -2.50816e-07 2.47154e-07 0.0005 1.46608e-07 
41 1 0.0193282 0.0237276 0.0154246 -7.3733e-05 -8.5381e-05 2.15544e-06 4.48909e-07 1.10944e-07 1.58218e-08 0.0005 1.46608e-07 
42 1 0.0214271 0.01624 0.0149555 -2.52599e-05 0.0175583 0.0150227 -3.43946e-08 1.77612e-07 1.5252e-08 0.0005 1.46608e-07 
43 1 0.0156451 0.0236218 0.0146192 -0.000360038 0.00018979 -0.000162437 -4.43865e-07 2.47467e-08 -1.23155e-06 0.0005 1.46608e-07 
44 1 0.0188383 0.0232551 0.014676 0.0177414 -0.0011242 -0.00497755 0 0 -1.43822e-06 0.0005 1.46608e-07 
45 1 0.0224869 0.0236108 0.0141209 0.000113736 -0.000742121 9.71701e-05 -3.07848e-07 -5.87033e-08 2.53991e-07 0.0005 1.46608e-07 
46 1 0.0218543 0.0224575 0.0143694 0.00303302 0.00586649 -0.00584442 4.18073e-08 2.26998e-07 1.3042e-07 0.0005 1.46608e-07 
47 1 0.0217159 0.0225499 0.0154195 0.000666259 0.000570774 -0.00109034 1.02052e-07 4.16795e-07 3.23758e-07 0.0005 1.46608e-07 
48 1 0.0203528 0.0138225 0.0136246 -1.20401e-05 0.00064615 -0.000905172 -8.24106e-08 1.83191e-08 -7.68942e-07 0.0005 1.46608e-07 
49 1 0.0229166 0.0225152 0.0165277 -0.00383823 0.00343531 -0.00218586 -3.83091e-07 1.21268e-07 -7.48167e-07 0.0005 1.46608e-07 
50 1 0.0213669 0.0229471 0.0136466 0.00023371 0.00416225 -0.00453532 -9.98641e-07 -3.60063e-07 -1.82009e-06 0.0005 1.46608e-07 
51 1 0.0156163 0.0230175 0.0135166 0.00238248 0.00159935 -0.000357979 1.02049e-08 1.30529e-08 1.02015e-08 0.0005 1.46608e-07 
52 1 0.0200758 0.0238795 0.0124239 0.0017057 0.00273622 -0.00136636 1.09532e-07 -1.39192e-06 -1.78429e-06 0.0005 1.46608e-07 
53 1 0.0232002 0.0232225 0.0147039 0.0001736 -0.000442309 0.00036854 3.63683e-08 1.92677e-07 -1.31502e-07 0.0005 1.46608e-07 
54 1 0.0199293 0.0230685 0.0149747 0.00231997 0.00451807 -0.00348398 -3.91475e-08 -7.04145e-07 6.5445e-07 0.0005 1.46608e-07 
55 1 0.0222035 0.0231434 0.0160596 0.000134205 -6.94382e-05 -0.000140147 2.61601e-07 -3.28112e-08 -7.87367e-09 0.0005 1.46608e-07 
56 1 0.0234329 0.0220041 0.0158405 -0.00363391 0.00138185 -0.000506093 -3.26249e-07 1.73228e-07 -3.11503e-07 0.0005 1.46608e-07 
57 1 0.0173058 0.0235854 0.0141621 3.90119e-05 0.000511063 0.000240958 -1.18907e-06 6.29841e-07 1.00462e-06 0.0005 1.46608e-07 
58 1 0.0191303 0.0234354 0.0113803 0.00102339 -0.001139 -0.0109285 1.42363e-07 -5.86531e-08 1.19455e-06 0.0005 1.46608e-07 
59 1 0.0210476 0.0220793 0.0148234 0.0031405 0.000912329 -0.0126683 0 0 -1.43822e-06 0.0005 1.46608e-07 
60 1 0.0187455 0.0226744 0.00944594 0.00130292 -0.0103154 -0.0160751 -1.9358e-08 -5.87187e-08 -4.46698e-08 0.0005 1.46608e-07 
61 1 0.0165523 0.0232097 0.0147013 -0.000546661 0.0014576 -4.60401e-05 1.68453e-06 1.41032e-06 6.47587e-07 0.0005 1.46608e-07 
62 1 0.0202979 0.0237374 0.0140436 0.000558809 -0.0121467 -0.00916025 0 0 -1.43822e-06 0.0005 1.46608e-07 
63 1 0.0212852 0.0235388 0.0160438 6.21287e-05 7.56247e-06 -0.00029955 1.46231e-07 4.98459e-07 -2.51519e-07 0.0005 1.46608e-07 
64 1 0.0227551 0.0150908 0.0135388 0.00411604 0.000298265 0.00391915 -3.87803e-07 -3.74019e-07 -8.30348e-07 0.0005 1.46608e-07 
65 1 0.0212892 0.0141717 0.0135949 0.000442241 0.000813713 -0.000774668 -3.34996e-07 4.01173e-08 2.01297e-07 0.0005 1.46608e-07 
66 1 0.0240541 0.0206884 0.016505 7.42518e-05 0.0235776 -0.00757674 1.44241e-07 -1.4007e-07 1.25744e-07 0.0005 1.46608e-07 
67 1 0.0231908 0.0211489 0.0162986 -0.0124456 0.00271633 -0.00218992 -1.12806e-07 -4.66927e-07 2.65001e-07 0.0005 1.46608e-07 
68 1 0.0227549 0.0225981 0.0153454 0.00157114 -0.000923106 0.00111474 1.11092e-08 3.92366e-07 -4.36561e-08 0.0005 1.46608e-07 
69 1 0.0250907 0.0214458 0.016179 0.000224596 -0.000952112 -0.000487152 2.97299e-08 -6.28109e-08 1.48506e-07 0.0005 1.46608e-07 
70 1 0.0238476 0.0227131 0.0152704 0.000365836 -0.000118545 0.000607714 -3.59817e-07 2.57502e-07 -1.86908e-07 0.0005 1.46608e-07 
71 1 0.0171247 0.0212794 0.0162444 -0.00450074 0.00344955 -0.00313193 4.61705e-07 -4.08537e-07 2.40208e-07 0.0005 1.46608e-07 
72 1 0.0165319 0.0147742 0.0127581 -0.000220124 -0.00111619 0.00219625 -2.98198e-09 -5.13505e-08 -2.057e-07 0.0005 1.46608e-07 
73 1 0.0169273 0.0234917 0.015612 0.000509664 0.00145656 0.000986309 3.80599e-06 1.42522e-06 4.05818e-06 0.0005 1.46608e-07 
74 1 0.0190774 0.0241209 0.0128942 -0.000372072 0.000557434 -0.000429526 1.25894e-07 3.60536e-08 3.07613e-07 0.0005 1.46608e-07 
75 1 0.0204435 0.0151753 0.0150947 0.00160804 0.000939949 -0.000499842 -2.75181e-07 -1.5936e-07 -5.03068e-07 0.0005 1.46608e-07 
76 1 0.0156224 0.0210079 0.0205204 0 -0 -0.03 0 0 0 0.0005 1.46608e-07 
77 1 0.0195756 0.0220838 0.0241758 0 -0 -0.03 0 0 0 0.0005 1.46608e-07 
78 1 0.0198023 0.0211495 0.0215623 0 -0 -0.03 0 0 0 0.0005 1.46608e-07 
79 1 0.0206014 0.0215792 0.0156179 0.00254995 0.00197009 -0.00144997 6.7303e-08 1.39125e-07 -6.93939e-07 0.0005 1.46608e-07 
80 1 0.0168752 0.021301 0.020094 0 -0 -0.03 0 0 0 0.0005 1.46608e-07 
81 1 0.019499 0.0149842 0.0148276 0.00152711 0.00149067 -0.00125721 2.65373e-07 -4.02271e-07 1.04809e-06 0.0005 1.46608e-07 
82 1 0.0181484 0.0223897 0.0190664 0 -0 -0.03 0 0 0 0.0005 1.46608e-07 
83 1 0.0199927 0.0200304 0.0222644 0 -0 -0.03 0 0 0 0.0005 1.46608e-07 
84 1 0.0196504 0.0144236 0.0140054 -3.53065e-05 0.0010141 -0.000734767 4.84527e-07 -3.39981e-07 8.99365e-07 0.0005 1.46608e-07 
85 1 0.0163497 0.0195255 0.0244014 0 -0 -0.03 0 0 0 0.0005 1.46608e-07 
86 1 0.0200002 0.0151244 0.0168461 0.0282655 -0.0674197 0.03072 0 0 -1.43822e-06 0.0005 1.46608e-07 
87 1 0.016509 0.0160266 0.0147685 0.0131649 0.00087743 0.00390682 0 0 -1.43822e-06 0.0005 1.46608e-07 
88 1 0.0159541 0.0180074 0.022335 0 -0 -0.03 0 0 0 0.0005 1.46608e-07 
89 1 0.0218665 0.0215997 0.0151472 0.000874992 0.00084998 -0.00212124 -5.15431e-09 1.60635e-07 -7.48267e-08 0.0005 1.46608e-07 
90 1 0.0185116 0.0168101 0.0232165 0 -0 -0.03 0 0 0 0.0005 1.46608e-07 
91 1 0.0160513 0.0193132 0.0159484 -0.000168675 0.0207304 -0.00165648 0 0 -1.43822e-06 0.0005 1.46608e-07 
92 1 0.0167364 0.0225309 0.0154119 0.000393136 0.0012116 -0.000613066 2.5242e-07 3.19612e-06 1.53745e-06 0.0005 1.46608e-07 
93 1 0.0174771 0.0203714 0.0165846 0.000191017 0.0291319 -0.023475 0 0 -1.43822e-06 0.0005 1.46608e-07 
94 1 0.0178878 0.0163826 0.0168341 0 0 -0.179578 0 0 -1.43822e-06 0.0005 1.46608e-07 
95 1 0.0203075 0.0238123 0.0156079 -3.39894e-05 -8.26541e-05 0.000108514 6.07998e-07 9.37557e-08 4.43941e-07 0.0005 1.46608e-07 
96 1 0.0172944 0.0155993 0.0143192 0.00602479 0.00451357 -0.0036656 0 0 -1.43822e-06 0.0005 1.46608e-07 
97 1 0.0159022 0.0208424 0.019201 0 -0 -0.03 0 0 0 0.0005 1.46608e-07 
98 1 0.0226245 0.01886 0.0205949 0 -0 -0.03 0 0 0 0.0005 1.46608e-07 
99 1 0.0183339 0.0230734 0.017563 0.0169859 -0.0196694 -0.0129696 -3.45151e-07 1.88359e-06 7.00419e-06 0.0005 1.46608e-07 
100 1 0.0211871 0.0217488 0.0238945 0 -0 -0.03 0 0 0 0.0005 1.46608e-07 
101 1 0.0158706 0.0178038 0.0186615 0 -0 -0.03 0 0 0 0.0005 1.46608e-07 
102 1 0.0192883 0.0224972 0.0155213 0.00127798 0.00106768 -0.00399722 8.92877e-07 9.00971e-07 -6.35307e-07 0.0005 1.46608e-07 
103 1 0.017375 0.0207121 0.01879 0 -0 -0.03 0 0 0 0.0005 1.46608e-07 
104 1 0.0187282 0.0145356 0.0143753 0.00058981 0.00118936 0.000716419 -2.2684e-07 2.94634e-07 7.46895e-07 0.0005 1.46608e-07 
105 1 0.0155645 0.0157989 0.0145285 0.00474892 0.00818504 0.00857078 0 0 -1.43822e-06 0.0005 1.46608e-07 
106 1 0.0143051 0.0211928 0.0154035 0.00351279 0.00602409 -0.00206776 -1.42447e-07 5.00882e-07 -2.66554e-07 0.0005 1.46608e-07 
107 1 0.0224822 0.0232988 0.0170072 -0.000120734 -0.000109155 -0.000190683 -1.95064e-08 -9.00764e-08 -6.05558e-08 0.0005 1.46608e-07 
108 1 0.0220414 0.0207327 0.0156135 0.00162077 0.00144151 -0.00138685 3.29246e-07 1.45538e-07 -4.27801e-08 0.0005 1.46608e-07 
109 1 0.020052 0.0221095 0.0147235 0.00289298 0.00494863 -0.00515765 2.12801e-07 -1.86161e-06 2.35966e-06 0.0005 1.46608e-07 
110 1 0.0154482 0.0212935 0.0153381 -0.000204419 0.0253005 -0.01505 -2.71515e-09 9.34046e-08 -9.17011e-08 0.0005 1.46608e-07 
111 1 0.0163867 0.0158228 0.0206807 0 -0 -0.03 0 0 0 0.0005 1.46608e-07 
112 1 0.0174724 0.0185867 0.019321 0 -0 -0.03 0 0 0 0.0005 1.46608e-07 
113 1 0.0144897 0.0219936 0.0148339 0.00643268 0.00469046 -0.00315338 -6.07261e-10 5.82976e-07 -5.45564e-08 0.0005 1.46608e-07 
114 1 0.0180201 0.0235266 0.0156545 -0.000877663 0.000883632 0.00216019 -4.51432e-07 -5.69535e-07 2.18735e-06 0.0005 1.46608e-07 
115 1 0.0147704 0.0228774 0.015227 -0.0172817 0.0512942 -0.0772934 0 0 -1.43822e-06 0.0005 1.46608e-07 
116 1 0.0177956 0.0147913 0.0146302 -0.000240386 -0.000167712 -0.000296192 2.71866e-07 9.54287e-07 1.09128e-06 0.0005 1.46608e-07 
117 1 0.0184322 0.0224349 0.0163881 0.00391739 0.00850408 -0.000606876 1.91262e-07 -9.46281e-07 -4.0524e-07 0.0005 1.46608e-07 
118 1 0.0240944 0.0183448 0.0167063 3.69641e-10 0.0245146 0.00321647 -9.72791e-14 2.10605e-09 -1.67289e-08 0.0005 1.46608e-07 
119 1 0.0175423 0.0233519 0.0228213 0 -0 -0.03 0 0 0 0.0005 1.46608e-07 
120 1 0.020439 0.0205938 0.0156664 0.00431287 0.00169897 -0.000696205 -4.58381e-07 3.19489e-07 1.67755e-07 0.0005 1.46608e-07 
121 1 0.0208502 0.0146015 0.0143839 -0.000187732 0.0011019 -0.00144604 -3.69275e-07 1.27507e-07 3.42471e-07 0.0005 1.46608e-07 
122 1 0.0250329 0.0175496 0.01661 0.0110151 -0.00975286 0.00267633 0 0 -1.43822e-06 0.0005 1.46608e-07 
123 1 0.0186716 0.0214923 0.016155 0.00650475 0.00894693 -0.00509058 0 0 -1.43822e-06 0.0005 1.46608e-07 
124 1 0.0218324 0.0162383 0.0220752 0 -0 -0.03 0 0 0 0.0005 1.46608e-07 
125 1 0.0233672 0.0153554 0.014284 0.00375368 0.00276927 0.00338212 -2.78191e-07 -4.12867e-08 -1.05586e-06 0.0005 1.46608e-07 
126 1 0.017442 0.0184938 0.0207372 0 -0 -0.03 0 0 0 0.0005 1.46608e-07 
127 1 0.0210262 0.0208862 0.0244486 0 -0 -0.03 0 0 0 0.0005 1.46608e-07 
128 1 0.0212408 0.0199255 0.0158591 1.52657e-05 0.0201149 -0.0041115 2.7737e-08 -6.21e-08 -5.71876e-09 0.0005 1.46608e-07 
129 1 0.0158747 0.0196858 0.0169989 -0.0118125 0.0463137 0.00543083 0 0 -1.43822e-06 0.0005 1.46608e-07 
130 1 0.019702 0.0156849 0.0155982 0.00233563 -4.76641e-05 -0.0185635 0 0 -1.43822e-06 0.0005 1.46608e-07 
131 1 0.0196976 0.0194351 0.0245016 0 -0 -0.03 0 0 0 0.0005 1.46608e-07 
132 1 0.0189828 0.0202927 0.0230222 0 -0 -0.03 0 0 0 0.0005 1.46608e-07 
133 1 0.0245038 0.019654 0.0167331 7.41159e-11 0.0246169 -0.0030117 1.12442e-12 -2.20161e-09 -1.67788e-08 0.0005 1.46608e-07 
134 1 0.0222608 0.0181578 0.0158536 3.23036e-10 0.0201159 0.00403114 2.22629e-15 2.60621e-09 -1.34026e-08 0.0005 1.46608e-07 
135 1 0.0235608 0.0189073 0.0181682 0 0 -0.0779366 0 0 -1.43822e-06 0.0005 1.46608e-07 
136 1 0.0187601 0.0212681 0.0199327 0 -0 -0.03 0 0 0 0.0005 1.46608e-07 
137 1 0.0163244 0.0151585 0.0136577 -0.00190849 -0.000540807 0.00156744 6.91317e-08 -8.82699e-08 -3.07513e-08 0.0005 1.46608e-07 
138 1 0.0213313 0.0181362 0.0249002 0 -0 -0.03 0 0 0 0.0005 1.46608e-07 
139 1 0.0186448 0.0176155 0.016563 5.85241e-05 0.0227595 0.00592765 -1.86308e-09 6.15002e-08 5.78822e-09 0.0005 1.46608e-07 
140 1 0.0168374 0.0196392 0.0185142 0 -0 -0.03 0 0 0 0.0005 1.46608e-07 
141 1 0.0231491 0.0168907 0.0156815 -3.66044e-05 0.0220305 0.0110406 6.6148e-09 2.85853e-08 -2.00668e-09 0.0005 1.46608e-07 
142 1 0.0231437 0.0176511 0.0203749 0 -0 -0.03 0 0 0 0.0005 1.46608e-07 
143 1 0.019886 0.0165115 0.0243661 0 -0 -0.03 0 0 0 0.0005 1.46608e-07 
144 1 0.020539 0.0240456 0.0165523 0.000748883 -0.000220757 0.000397961 2.79639e-07 1.43072e-07 3.55812e-07 0.0005 1.46608e-07 
145 1 0.0180704 0.0233342 0.0166345 -0.00310321 0.00496079 0.00586037 2.18357e-07 -2.64925e-06 -9.05521e-06 0.0005 1.46608e-07 
146 1 0.0167507 0.01491 0.014873 -0.0371712 -0.0478304 -0.0302851 0 0 -1.43822e-06 0.0005 1.46608e-07 
147 1 0.0195228 0.0188492 0.0168103 -0.00064334 0.0170143 -0.0475124 0 0 -1.43822e-06 0.0005 1.46608e-07 
148 1 0.0162047 0.0182577 0.0201287 0 -0 -0.03 0 0 0 0.0005 1.46608e-07 
149 1 0.0221441 0.0144646 0.0140231 0.00103511 0.00123173 -0.00112328 2.01955e-07 1.24871e-07 -4.84042e-08 0.0005 1.46608e-07 
150 1 0.0227985 0.021626 0.0216547 0 -0 -0.03 0 0 0 0.0005 1.46608e-07 
