ITEM: TIMESTEP
12000000
ITEM: NUMBER OF ATOMS
144
ITEM: BOX BOUNDS ff ff ff
-0.02 0.43
-0.02 0.06
-0.02 0.07
ITEM: ATOMS id type x y z vx vy vz fx fy fz radius mass 
1 1 0.0211242 0.0232638 0.0127577 0.000521199 0.00739146 -0.0220373 1.33115e-06 1.95081e-06 -1.67643e-06 0.0005 1.46608e-07 
2 1 0.0200145 0.0231555 0.0148077 0.0165578 0.00657663 -0.0233425 0 0 -1.43822e-06 0.0005 1.46608e-07 
4 1 0.0203515 0.0222548 0.00865906 -0.000668077 -0.0115353 -0.0138907 -1.10766e-09 -8.54149e-09 3.20253e-09 0.0005 1.46608e-07 
5 1 0.0323449 0.0228282 0.00936958 0.000343574 -0.0103848 -0.0191059 -7.67549e-09 -1.44804e-08 -1.19426e-08 0.0005 1.46608e-07 
11 1 0.0239596 0.0148334 0.0107938 0.000144159 -0.00387263 0.0212478 -4.72269e-10 1.00332e-08 6.9029e-09 0.0005 1.46608e-07 
13 1 0.0214027 0.0231269 0.0147593 -0.00893361 -0.0350196 0.0176809 0 0 -1.43822e-06 0.0005 1.46608e-07 
15 1 0.00938048 0.0183393 0.00587271 3.64865e-15 5.2091e-16 -3.69009e-14 -5.02926e-22 1.87605e-21 0 0.0005 1.46608e-07 
16 1 0.0260148 0.0196703 0.00594114 1.76444e-14 2.84136e-15 -2.87664e-13 2.24993e-22 -6.93012e-21 0 0.0005 1.46608e-07 
17 1 0.0302275 0.0152733 0.00948448 0.00598891 0.0112648 0.0114212 0.00946399 0.00946928 0.00222491 0.0005 1.46608e-07 
18 1 0.0366849 0.0218066 0.0435188 -9.6879e-317 9.73506e-317 2.68131e-13 0 0 0 0.0005 1.46608e-07 
19 1 0.0245032 0.0159563 0.00849525 0.000607471 -0.0137038 0.014425 -1.69891e-08 -7.45878e-08 1.05535e-07 0.0005 1.46608e-07 
20 1 0.0357769 0.0148134 0.0115211 0.00014418 -0.000543498 0.021587 -2.64096e-09 1.07062e-08 4.81568e-09 0.0005 1.46608e-07 
23 1 0.022835 0.0212763 0.01558 0.000151342 0.0208119 -0.0114231 -1.79239e-07 1.02597e-06 1.63906e-07 0.0005 1.46608e-07 
24 1 0.0290484 0.0158289 0.014408 0.000511482 0.0132874 0.0145049 -1.86284e-09 1.45062e-08 -1.65122e-09 0.0005 1.46608e-07 
25 1 0.0171986 0.023072 0.0134219 -0.000499176 -0.00047652 -0.00215268 6.63806e-07 1.46892e-06 -1.9848e-06 0.0005 1.46608e-07 
27 1 0.000591717 0.0149731 0.0435188 2.89468e-183 -3.9598e-183 -8.23806e-13 -7.77758e-186 1.06394e-185 0 0.0005 1.46608e-07 
28 1 0.0325725 0.0232839 0.0105078 0.000803359 -0.00259924 -0.00967935 -1.15859e-08 -1.80974e-08 -2.27522e-08 0.0005 1.46608e-07 
31 1 0.0156878 0.0230458 0.0134667 0.000188926 -0.000476425 -0.00128427 -1.6763e-07 -2.19095e-07 -1.67578e-06 0.0005 1.46608e-07 
32 1 0.0205315 0.0224978 0.0155041 -0.00573697 0.0284723 -0.0250625 1.19034e-07 2.45957e-07 -2.62029e-07 0.0005 1.46608e-07 
33 1 0.0217345 0.022924 0.0209927 -0.0145457 0.0148437 0.193625 0 0 -1.43822e-06 0.0005 1.46608e-07 
35 1 0.0156971 0.0145417 0.0142471 0.000421392 -0.00110509 0.00130766 2.72471e-08 -1.23733e-08 3.0263e-09 0.0005 1.46608e-07 
37 1 0.0314328 0.0197121 0.00727196 0.000143169 -0.0213872 -0.00358141 -1.14802e-09 -7.94439e-09 9.02314e-09 0.0005 1.46608e-07 
40 1 0.0216379 0.0221197 0.0147284 0.00931894 -0.00822712 0.00801059 5.13927e-07 8.0285e-07 1.06364e-05 0.0005 1.46608e-07 
41 1 0.0171379 0.0158338 0.0145842 0.0034596 0.00201609 0.00417069 2.09198e-09 3.44486e-07 5.29994e-07 0.0005 1.46608e-07 
43 1 0.0190161 0.0178738 0.00733964 0.000598248 -0.0173793 0.00501256 4.07587e-08 2.93352e-07 -1.15028e-07 0.0005 1.46608e-07 
44 1 0.0256748 0.0204987 0.0165431 -0.00383939 0.0166413 -0.00451257 3.91854e-07 1.10263e-06 -3.48701e-07 0.0005 1.46608e-07 
47 1 0.0216192 0.0221342 0.0157304 -0.0245347 0.0257438 0.0281767 0 0 -1.43822e-06 0.0005 1.46608e-07 
49 1 0.003617 0.0285782 0.0435188 -9.68849e-317 -9.75601e-317 2.88878e-12 0 0 0 0.0005 1.46608e-07 
52 1 0.034791 0.0196079 0.0158138 0.00332946 0.00112987 0.00174892 -1.7883e-07 -1.19522e-07 -1.13206e-08 0.0005 1.46608e-07 
54 1 0.0228571 0.0168302 0.0153496 0.000511387 0.0178611 0.0102618 4.2531e-08 -1.26433e-07 -9.48977e-08 0.0005 1.46608e-07 
57 1 0.0196051 0.0193773 0.00612808 -3.58962e-14 1.60998e-14 -3.28527e-13 1.47172e-20 2.55433e-21 -1.69407e-21 0.0005 1.46608e-07 
59 1 0.0332663 0.02283 0.013602 0.000424214 0.0104985 -0.0181512 3.28103e-10 -5.80614e-09 -9.70281e-09 0.0005 1.46608e-07 
62 1 0.0164918 0.0142507 0.0137144 -3.68882e-05 2.4826e-05 9.51802e-06 1.08009e-08 6.57707e-09 -6.99429e-08 0.0005 1.46608e-07 
63 1 0.0173747 0.0141709 0.0132518 0.000217296 -0.000281447 0.000636762 -2.19606e-08 6.1888e-08 -8.64562e-08 0.0005 1.46608e-07 
65 1 0.0350102 0.0160225 0.0145356 0.00354237 0.00950085 0.010331 -4.28454e-05 -2.64226e-05 1.36271e-06 0.0005 1.46608e-07 
67 1 0.032785 0.0233539 0.011533 0.000429279 0.00221096 -0.0213905 2.27557e-08 -1.12752e-08 2.92934e-08 0.0005 1.46608e-07 
68 1 0.0340279 0.0202226 0.015547 0.0022067 0.0137388 -0.00501608 -3.3541e-08 -1.99388e-09 4.66337e-08 0.0005 1.46608e-07 
71 1 0.0199708 0.0237135 0.0139773 0.0180076 0.0118524 -0.0203135 3.27474e-07 -5.05066e-07 1.11985e-06 0.0005 1.46608e-07 
73 1 0.0172981 0.0240053 0.0130766 -0.0016196 -0.000526798 -0.000833951 1.12019e-07 -1.39613e-07 -1.31065e-06 0.0005 1.46608e-07 
74 1 0.0259524 0.0217278 0.00823701 0.000162854 -0.0164008 -0.0134964 -1.3701e-09 -1.06179e-08 5.77343e-09 0.0005 1.46608e-07 
76 1 0.0232873 0.0187216 0.0159415 -1.60111e-10 0.0205251 0.00135342 -3.64634e-16 7.58157e-10 -1.36778e-08 0.0005 1.46608e-07 
79 1 0.0311561 0.0185717 0.00721703 0.000812883 -0.0188572 0.00124489 -3.18903e-09 1.49491e-09 1.07369e-08 0.0005 1.46608e-07 
80 1 0.0226097 0.0179233 0.0158129 0.000508129 0.0199984 0.00503166 2.30258e-11 3.90541e-09 -1.51802e-08 0.0005 1.46608e-07 
84 1 0.0273675 0.0225042 0.0139395 2.42606e-05 0.0132626 -0.0174132 -1.27209e-09 -7.05871e-09 -9.83836e-09 0.0005 1.46608e-07 
85 1 0.0245969 0.0220798 0.0158721 -0.0181047 -0.00077461 -0.0316753 -3.33209e-07 -2.47312e-07 -7.81172e-07 0.0005 1.46608e-07 
86 1 0.0239665 0.0163777 0.0150703 0.00310288 0.0123116 0.00940249 -2.4514e-09 -2.21193e-07 -1.70206e-07 0.0005 1.46608e-07 
87 1 0.0317089 0.0208 0.00756625 0.000395436 -0.0173254 -0.00625137 5.84331e-08 -1.60005e-07 1.36906e-07 0.0005 1.46608e-07 
88 1 0.0323835 0.0199157 0.0157457 0.000555829 -0.00507417 0.00081321 2.53776e-06 -9.17861e-06 1.90078e-06 0.0005 1.46608e-07 
89 1 0.0344809 0.0181372 0.0156126 0.000154078 0.02144 0.00555218 5.08664e-11 6.11945e-09 -1.11956e-08 0.0005 1.46608e-07 
90 1 0.0250064 0.0178993 0.0073927 -0.000541938 -0.0222246 0.00335846 2.49739e-08 4.19624e-08 -1.03667e-08 0.0005 1.46608e-07 
92 1 0.0309529 0.0174395 0.00749147 6.33109e-05 -0.0208008 0.007509 1.61665e-11 -1.00246e-08 3.35603e-08 0.0005 1.46608e-07 
97 1 0.0137522 0.0197936 0.0167119 5.01914e-07 0.0245095 -0.00367185 1.06286e-10 -2.54772e-09 -1.67044e-08 0.0005 1.46608e-07 
103 1 0.0295667 0.0149598 0.0124464 0.0119083 0.00810579 0.0103043 -0.000545032 -0.00025103 -0.000405841 0.0005 1.46608e-07 
106 1 0.0242111 0.0151034 0.0097412 0.000207054 -0.00953076 0.0207456 -1.26052e-09 -9.3524e-09 -8.24461e-08 0.0005 1.46608e-07 
108 1 0.0214483 0.0168437 0.00645098 -2.3872e-14 5.08824e-14 1.84336e-13 -4.47604e-20 -3.6793e-20 6.35275e-22 0.0005 1.46608e-07 
109 1 0.0251843 0.0213105 0.0162241 -0.00667111 0.00654213 -0.00280011 -1.17452e-06 -2.72905e-06 3.10694e-07 0.0005 1.46608e-07 
110 1 0.0189671 0.0158483 0.0145948 0.012139 -0.00615544 -0.00337248 -1.03838e-07 -6.93767e-08 2.44188e-07 0.0005 1.46608e-07 
112 1 0.0280615 0.0200346 0.0156834 0.000346926 0.0196413 -0.00545436 -2.56919e-09 9.37883e-09 -1.04088e-08 0.0005 1.46608e-07 
116 1 0.0164657 0.0227305 0.0140105 -7.43344e-05 0.000863562 0.00163501 3.67398e-09 5.04481e-07 -1.4447e-06 0.0005 1.46608e-07 
121 1 0.0551527 0.0181697 0.00595147 -1.3004e-14 -1.76679e-14 -2.51655e-13 1.10511e-20 1.85288e-22 -4.23516e-22 0.0005 1.46608e-07 
122 1 0.0363586 0.015538 0.00906074 0.000147524 -0.0126322 0.0173474 -1.32231e-09 6.13512e-09 1.01125e-08 0.0005 1.46608e-07 
124 1 0.017993 0.0240116 0.0139285 -0.0109026 -0.0073635 -0.00308053 0 0 -1.43822e-06 0.0005 1.46608e-07 
125 1 0.0361002 0.0149617 0.0102451 0.000996518 -0.00446401 0.018019 -9.58565e-09 -8.24508e-10 2.44241e-08 0.0005 1.46608e-07 
126 1 0.0191836 0.0239668 0.0134151 0.000582187 0.000215416 -0.000704925 -7.63167e-07 -4.34232e-07 1.46542e-06 0.0005 1.46608e-07 
128 1 0.0303903 0.00406748 0.0435188 -9.67556e-317 -9.75879e-317 -3.22607e-12 0 0 0 0.0005 1.46608e-07 
130 1 0.019033 0.0149137 0.013148 0.000839197 0.00106376 0.00590652 2.29124e-07 5.11627e-08 2.49349e-07 0.0005 1.46608e-07 
131 1 0.0309517 0.0151044 0.00978886 0.0153635 -0.00267134 0.0143653 -0.000823243 0.000250465 -0.000165882 0.0005 1.46608e-07 
133 1 0.0236698 0.0147513 0.0119412 0.000799478 0.00233742 0.018931 -5.93312e-09 1.40815e-08 2.56191e-08 0.0005 1.46608e-07 
135 1 0.0347801 0.0165888 0.0149946 0.000558354 0.0115998 0.00694048 -1.22454e-05 1.00165e-06 1.12369e-05 0.0005 1.46608e-07 
137 1 0.0205028 0.0140612 0.0131497 -0.000158705 1.31795e-05 -4.51875e-05 -6.79958e-09 5.47467e-08 -1.3257e-07 0.0005 1.46608e-07 
138 1 0.0211634 0.0230971 0.00998163 -0.00025345 0.00145101 -0.00145197 -2.01055e-08 1.59441e-08 6.54585e-08 0.0005 1.46608e-07 
139 1 0.0262668 0.022622 0.00911022 0.00147721 -0.00875422 -0.0132685 -1.78006e-08 -1.49632e-08 -1.06582e-08 0.0005 1.46608e-07 
141 1 0.0204061 0.0229896 0.00978312 0.00115732 -0.00646348 -0.0166585 -2.81184e-10 -4.3101e-08 -5.65839e-08 0.0005 1.46608e-07 
142 1 0.0369033 0.0171762 0.00761912 0.000297573 -0.0172713 0.00719806 1.323e-08 2.22743e-08 2.10815e-08 0.0005 1.46608e-07 
143 1 0.0297256 0.0147799 0.0116056 -0.114912 0.0501191 -0.155463 0.0280924 -0.0130026 0.0147165 0.0005 1.46608e-07 
147 1 0.0276635 0.0216952 0.0148569 0.00131273 0.013036 -0.01201 -2.69526e-08 -5.06192e-09 8.40049e-08 0.0005 1.46608e-07 
149 1 0.0570019 0.0175547 0.00590579 4.3507e-15 1.18919e-14 2.80767e-13 -3.50096e-20 8.44386e-21 -2.11758e-22 0.0005 1.46608e-07 
150 1 0.023054 0.0228354 0.0138281 0.000243735 -0.000809708 -0.00217263 -5.81902e-06 2.1968e-06 -6.11999e-06 0.0005 1.46608e-07 
151 1 0.0220978 0.0226946 0.0140606 0.00138273 -0.00184832 0.00323283 -9.59768e-06 8.59719e-06 -1.53943e-06 0.0005 1.46608e-07 
157 1 0.0200544 0.0241199 0.0129482 -0.000116607 0.00116066 -0.000874345 5.8585e-07 -2.08351e-08 3.28143e-07 0.0005 1.46608e-07 
158 1 0.0224967 0.0238484 0.0145387 0.0051398 -0.00294724 0.000678983 5.35899e-06 3.90268e-07 -6.17365e-07 0.0005 1.46608e-07 
160 1 0.0330564 0.0232645 0.0125745 0.00104652 0.00446782 -0.0184952 -2.35872e-08 1.63769e-08 -1.5346e-07 0.0005 1.46608e-07 
161 1 0.0221348 0.00230077 0.0435188 9.74157e-317 -9.69799e-317 9.23294e-13 0 0 0 0.0005 1.46608e-07 
165 1 0.0166832 0.0233648 0.0126161 0.000749994 -0.00112895 -0.00348999 3.63826e-07 -4.72097e-07 -6.56814e-07 0.0005 1.46608e-07 
166 1 0.0285078 0.018141 0.0157214 0.000261883 0.0205516 0.00496583 6.47677e-10 7.67297e-09 -1.01482e-08 0.0005 1.46608e-07 
167 1 0.0189043 0.0146238 0.0119347 -0.000652391 0.000921754 -0.00152901 9.64696e-09 -1.65063e-08 3.89599e-08 0.0005 1.46608e-07 
170 1 0.0191696 0.0188059 0.00719081 0.000649089 -0.0181631 0.000104049 -3.43453e-08 -5.21623e-09 9.27661e-09 0.0005 1.46608e-07 
171 1 0.0187626 0.0167057 0.00786953 0.000178133 -0.0161674 0.00974093 1.84621e-10 6.01862e-08 -3.48389e-09 0.0005 1.46608e-07 
173 1 0.0199298 0.0186857 0.00719695 0.00411771 -0.00579224 0.00145709 -1.6055e-08 -4.10383e-08 3.22999e-09 0.0005 1.46608e-07 
174 1 0.0223562 0.0231659 0.0131872 -0.00124301 0.000969078 0.000195699 -1.92942e-08 1.64296e-08 6.81523e-09 0.0005 1.46608e-07 
179 1 0.019541 0.014226 0.0125952 0.00505356 0.00334879 -0.00555582 1.40351e-07 3.83879e-08 -6.14115e-08 0.0005 1.46608e-07 
185 1 0.030715 0.0166114 0.00796749 0.000310931 -0.0170786 0.0118351 3.2967e-08 3.58293e-07 -2.80786e-07 0.0005 1.46608e-07 
186 1 0.0293628 0.0152457 0.0133959 0.000122475 0.00872908 0.0204607 -2.33635e-10 1.20752e-08 -2.22868e-09 0.0005 1.46608e-07 
187 1 0.0282731 0.0190793 0.015832 0.000968462 0.0196376 -0.000389425 -1.00255e-08 1.71075e-08 -9.69405e-09 0.0005 1.46608e-07 
191 1 0.0231678 0.0204398 0.0239652 0.0544222 -0.0287699 0.181539 0 0 -1.43822e-06 0.0005 1.46608e-07 
193 1 0.0234277 0.0151122 0.0146553 -0.0210782 0.0107775 -0.0476008 -3.26972e-07 2.34718e-07 -8.13042e-07 0.0005 1.46608e-07 
194 1 0.0278768 0.0209995 0.0153546 0.00126331 0.0109176 -0.00454723 -7.92056e-09 1.19964e-08 -2.16749e-08 0.0005 1.46608e-07 
197 1 0.0299345 0.0147996 0.0109623 1.5068 0.487479 0.396716 -0.427581 0.308026 -0.111271 0.0005 1.46608e-07 
199 1 0.0217428 0.0236164 0.0139242 0.00809819 0.00312624 0.00571749 -9.05206e-06 3.80521e-05 -2.91956e-06 0.0005 1.46608e-07 
200 1 0.0207912 0.0234104 0.0114473 0.000845259 -0.00128347 -0.0194274 -2.00989e-08 2.46428e-08 -2.05108e-08 0.0005 1.46608e-07 
205 1 0.030075 0.0149705 0.0102967 0.551726 -0.0608779 0.270983 -0.0306221 -0.440185 0.00286369 0.0005 1.46608e-07 
206 1 0.0185372 0.014258 0.0137174 -0.000928905 -0.00675429 -0.00463211 -1.04686e-07 -6.93568e-07 -6.20035e-07 0.0005 1.46608e-07 
215 1 0.026935 0.0188837 0.00598981 1.43032e-14 2.30426e-15 -2.33189e-13 1.85288e-22 4.10282e-22 -2.11758e-22 0.0005 1.46608e-07 
220 1 0.0218386 0.0225803 0.0174002 0.0106426 -9.42287e-05 0.0298215 0 0 -1.43822e-06 0.0005 1.46608e-07 
221 1 0.021197 0.0240056 0.0131853 0.000252411 -0.000973382 0.00414344 -2.09693e-05 1.07952e-05 1.07566e-05 0.0005 1.46608e-07 
224 1 0.0240383 0.019966 0.0158479 -1.05077e-10 0.0200877 -0.00413908 -9.19108e-16 -2.68416e-09 -1.33821e-08 0.0005 1.46608e-07 
225 1 0.0186163 0.0160472 0.00836651 9.09771e-05 -0.0142323 0.0145468 2.42815e-09 1.46135e-08 2.77772e-09 0.0005 1.46608e-07 
226 1 0.0341122 0.0194064 0.0157964 0.00186606 0.0122834 -0.000873449 -6.23033e-07 2.84636e-07 2.90656e-07 0.0005 1.46608e-07 
227 1 0.0256585 0.0194205 0.0167236 -3.95843e-08 0.0245777 -0.00167432 -8.47158e-11 -1.22024e-09 -1.67472e-08 0.0005 1.46608e-07 
228 1 0.0180331 0.0149175 0.0131581 0.000833688 -0.000627428 0.0022392 8.70108e-08 -4.11629e-08 -1.36607e-07 0.0005 1.46608e-07 
229 1 0.0320726 0.0222498 0.00856377 0.000405104 -0.0136983 -0.0146894 -1.31054e-07 3.92934e-07 1.56853e-07 0.0005 1.46608e-07 
232 1 0.0221996 0.00109062 0.0435188 9.58743e-317 9.68145e-317 4.97437e-14 0 0 0 0.0005 1.46608e-07 
235 1 0.0198343 0.0213637 0.00788062 0.000897835 -0.016008 -0.0091389 -7.72503e-09 -2.35692e-08 -2.88402e-09 0.0005 1.46608e-07 
237 1 0.031873 0.0215308 0.0079461 0.000858273 -0.0132599 -0.0103209 1.57117e-07 1.16518e-07 4.25384e-08 0.0005 1.46608e-07 
240 1 0.0222159 0.0144635 0.0140951 -0.000649482 -0.00122854 0.00146253 1.38967e-09 -1.03906e-08 2.54292e-08 0.0005 1.46608e-07 
241 1 0.0230729 0.0160437 0.014771 0.000614693 0.0150365 0.0138114 3.40521e-08 -1.9779e-07 -1.89555e-07 0.0005 1.46608e-07 
242 1 0.0183172 0.0153732 0.0140016 0.00398936 -0.000644128 0.00110027 1.33816e-07 2.80801e-07 8.59041e-08 0.0005 1.46608e-07 
247 1 0.0355381 0.0148754 0.0125479 0.00351496 -0.00247852 -0.000720799 6.73759e-06 2.6076e-06 -4.02995e-06 0.0005 1.46608e-07 
248 1 0.0238462 0.0172887 0.0155847 -3.32841e-10 0.0188041 0.00826515 -6.66745e-13 5.13635e-09 -1.2644e-08 0.0005 1.46608e-07 
250 1 0.0219739 0.0208119 0.0157355 4.48472e-05 0.0221198 -0.0083813 -9.11535e-08 -4.40173e-08 -1.68345e-06 0.0005 1.46608e-07 
252 1 0.0247331 0.0161891 0.015684 0.00640699 0.00933557 0.00435574 1.57e-08 7.86426e-08 -8.368e-08 0.0005 1.46608e-07 
253 1 0.0185026 0.0141485 0.0127239 -5.44257e-05 0.0033809 -0.00561421 3.59215e-09 4.05778e-07 -6.74319e-07 0.0005 1.46608e-07 
256 1 0.0196418 0.0142711 0.0136128 0.00060735 -0.00180895 0.0023213 8.42613e-08 -2.37043e-07 2.30507e-07 0.0005 1.46608e-07 
257 1 0.0238088 0.021193 0.0154168 -8.41769e-06 0.0201826 -0.0116837 1.08918e-08 2.92672e-07 7.04113e-07 0.0005 1.46608e-07 
258 1 0.0304538 0.0158327 0.0086244 0.000215187 -0.0146574 0.0157891 2.26661e-10 3.90534e-09 1.19343e-08 0.0005 1.46608e-07 
260 1 0.108836 0.0200055 0.00584234 7.65192e-16 -1.2624e-15 -6.97625e-15 1.77348e-21 0 2.11758e-22 0.0005 1.46608e-07 
262 1 -0.0160891 0.0275193 0.068793 -0.689179 0.101249 0.637721 0 0 -1.43822e-06 0.0005 1.46608e-07 
263 1 0.0173451 0.0152354 0.0138104 0.00362243 0.00301493 0.00338223 3.79642e-09 -4.35855e-07 3.65473e-07 0.0005 1.46608e-07 
268 1 0.017768 0.0146241 0.0119342 0.00534444 0.000569346 -0.000945184 -6.11025e-09 -1.7021e-08 2.82613e-08 0.0005 1.46608e-07 
269 1 0.0249556 0.0169832 0.00769489 -3.29263e-06 -0.0138496 0.00589309 5.80942e-08 -8.0273e-08 9.43923e-08 0.0005 1.46608e-07 
270 1 0.0242307 0.0210249 0.0163186 -0.0100644 0.00906407 -0.0088319 -3.27259e-07 -8.21836e-08 -1.17117e-06 0.0005 1.46608e-07 
271 1 0.0269764 0.0233169 0.0122352 0.00124467 0.00333535 -0.0161827 7.62073e-08 -6.55661e-08 1.60444e-07 0.0005 1.46608e-07 
272 1 0.0232342 0.0233602 0.0150071 0.00625839 -0.0173999 -0.0146481 0 0 -1.43822e-06 0.0005 1.46608e-07 
274 1 0.0216476 0.0229068 0.00951237 0.00168236 -0.000502873 -0.00056083 -4.84247e-08 1.52352e-08 2.04191e-08 0.0005 1.46608e-07 
275 1 0.0227754 0.0222164 0.0159412 -0.0578859 -0.00272595 -0.066913 0 0 -1.43822e-06 0.0005 1.46608e-07 
277 1 0.0239208 0.0226378 0.0153051 -0.0137014 0.00936315 -0.0143613 -1.55438e-07 5.91983e-08 -2.41144e-07 0.0005 1.46608e-07 
282 1 0.0164379 0.0236862 0.0136317 0.000153677 -0.000699634 -0.00183994 -1.35552e-07 1.59497e-08 -5.15515e-08 0.0005 1.46608e-07 
284 1 0.00937694 0.00505359 0.0435188 -9.68799e-317 -9.69932e-317 9.23294e-13 0 0 0 0.0005 1.46608e-07 
288 1 0.0182912 0.0240676 0.0129756 0.000158645 0.000127376 -0.000211502 -1.28193e-07 -1.37688e-08 -1.21867e-06 0.0005 1.46608e-07 
289 1 0.0234763 0.0149844 0.012872 0.000287039 0.00702853 0.018506 1.69801e-09 4.84622e-08 9.51799e-08 0.0005 1.46608e-07 
291 1 0.0129507 0.0209693 0.0163987 0.0105813 0.0155824 -0.00523347 2.36316e-09 -1.23186e-09 -3.9245e-09 0.0005 1.46608e-07 
294 1 0.0213778 0.0142197 0.0136071 0.000937859 0.00190957 -0.00278987 4.84191e-08 1.69804e-07 -2.27128e-07 0.0005 1.46608e-07 
299 1 0.024947 0.0190645 0.00586966 2.60854e-15 4.23165e-16 -4.2529e-14 -2.63374e-21 3.51386e-21 2.11758e-22 0.0005 1.46608e-07 
300 1 0.0287232 0.017175 0.0153703 -0.000208814 0.0197309 0.01056 2.44251e-09 9.66529e-09 -8.2892e-09 0.0005 1.46608e-07 
