ITEM: TIMESTEP
15400000
ITEM: NUMBER OF ATOMS
128
ITEM: BOX BOUNDS ff ff ff
-0.02 0.43
-0.02 0.06
-0.02 0.07
ITEM: ATOMS id type x y z vx vy vz fx fy fz radius mass 
1 1 0.0189164 0.0219293 0.00835277 -0.000221467 -0.0141457 -0.0169067 2.40816e-09 -5.10148e-09 5.91112e-09 0.0005 1.46608e-07 
2 1 0.0220011 0.0232803 0.0147551 -0.00184943 0.000486115 -0.000567428 5.32171e-07 1.34209e-07 -1.087e-06 0.0005 1.46608e-07 
4 1 0.0165888 0.0238322 0.013691 0.000179151 -0.000443478 0.000295839 -6.43651e-07 4.58671e-07 -8.80804e-07 0.0005 1.46608e-07 
5 1 0.036093 0.0186656 0.00730343 1.66473e-05 -0.022336 -0.000708332 1.2686e-09 -8.68695e-10 1.2573e-08 0.0005 1.46608e-07 
11 1 0.0236038 0.0229019 0.0150518 -0.00346259 0.00336505 -0.00161593 -4.93688e-07 1.05282e-06 -1.34606e-06 0.0005 1.46608e-07 
15 1 0.00938048 0.0183393 0.00587271 3.64488e-15 5.42667e-16 -3.6901e-14 5.87629e-21 -2.22015e-21 4.23516e-22 0.0005 1.46608e-07 
16 1 0.0260148 0.0196703 0.00594114 1.76441e-14 2.8486e-15 -2.87664e-13 1.32349e-23 -1.27055e-21 0 0.0005 1.46608e-07 
17 1 0.0334387 0.0176155 0.0155242 0.000148847 0.0199247 0.00707961 -8.66114e-10 8.71018e-09 -8.29914e-09 0.0005 1.46608e-07 
18 1 0.0366849 0.0218066 0.0435188 -9.6879e-317 9.73506e-317 2.68131e-13 0 0 0 0.0005 1.46608e-07 
19 1 0.0197074 0.0234492 0.0115465 0.00101682 -0.00114453 -0.0169173 -1.18929e-07 1.50803e-07 1.83573e-07 0.0005 1.46608e-07 
20 1 0.0399884 0.0158773 0.0143301 0.00011863 0.0140451 0.0163712 -1.09289e-09 1.09592e-08 -3.55242e-09 0.0005 1.46608e-07 
24 1 0.0320504 0.0229906 0.0132188 8.83944e-05 0.00964985 -0.019942 -1.9718e-09 -7.26707e-09 -1.13018e-08 0.0005 1.46608e-07 
25 1 0.0208512 0.0236032 0.0141541 2.35492e-05 -0.000613354 -0.000678979 4.20522e-07 -7.84813e-07 5.09305e-07 0.0005 1.46608e-07 
27 1 0.000591717 0.0149731 0.0435188 9.71467e-317 9.75789e-317 -8.23806e-13 0 0 0 0.0005 1.46608e-07 
28 1 0.0367747 0.0216496 0.0080074 -4.77665e-05 -0.010701 -0.00770304 -0.0172384 0.00524655 -0.0114446 0.0005 1.46608e-07 
31 1 0.0223465 0.0149726 0.0132693 0.00395991 0.00375933 0.00949009 -7.15568e-08 -2.30308e-07 -1.11904e-06 0.0005 1.46608e-07 
32 1 0.0159992 0.0231571 0.0132235 0.00241784 0.00172719 -0.000182995 9.32165e-09 1.31278e-08 1.66183e-08 0.0005 1.46608e-07 
33 1 0.0213882 0.0229849 0.0135801 -0.000639842 -0.000637759 -0.000788576 -4.4127e-08 1.89329e-07 -1.9202e-07 0.0005 1.46608e-07 
35 1 0.0230826 0.0152817 0.0138719 0.00787518 0.00487482 0.00869851 0 0 -1.43822e-06 0.0005 1.46608e-07 
37 1 0.0348654 0.0149001 0.0104911 0.000353049 -0.00432131 0.019894 -1.34587e-09 9.04956e-09 8.9201e-09 0.0005 1.46608e-07 
41 1 0.0152271 0.0228615 0.0137861 0.00205838 0.00100811 -0.00105293 -5.12525e-09 8.04235e-09 8.32155e-11 0.0005 1.46608e-07 
43 1 0.0221495 0.0236807 0.0138508 0.000937964 -0.00141851 -0.0014318 -2.11843e-07 1.47199e-07 -1.34784e-06 0.0005 1.46608e-07 
44 1 0.0279352 0.0160027 0.0145103 0.00106689 0.0128538 0.0118825 -8.25621e-09 2.75388e-08 1.01872e-08 0.0005 1.46608e-07 
47 1 0.0229412 0.0234024 0.0144366 -0.00427626 0.00353225 -0.00358231 -4.7909e-07 2.52699e-07 -2.1248e-07 0.0005 1.46608e-07 
49 1 0.003617 0.0285782 0.0435188 -9.68849e-317 -9.75601e-317 2.88878e-12 0 0 0 0.0005 1.46608e-07 
52 1 0.0393622 0.0180148 0.0156019 0.000288905 0.0199644 0.00436139 -1.20518e-09 8.70107e-09 -9.45664e-09 0.0005 1.46608e-07 
57 1 0.0196051 0.0193773 0.00612808 -3.58962e-14 1.61019e-14 -3.28527e-13 2.64698e-23 6.20716e-21 4.23516e-22 0.0005 1.46608e-07 
59 1 0.0383456 0.0223296 0.0141371 0.00137494 0.00908253 -0.00921614 -8.33853e-05 6.15404e-05 -6.89149e-05 0.0005 1.46608e-07 
62 1 0.0214314 0.0181299 0.0158532 0.000518387 0.0202885 0.00442416 -1.74744e-10 3.88739e-09 -1.3545e-08 0.0005 1.46608e-07 
63 1 0.0175841 0.0146239 0.0119345 0.000520405 0.00111901 -0.00141907 -8.5503e-07 3.40219e-07 5.49338e-07 0.0005 1.46608e-07 
65 1 0.0366049 0.0208549 0.00769158 0.031805 -0.0198285 0.0278842 0.482516 -0.182683 0.741281 0.0005 1.46608e-07 
67 1 0.0369644 0.0221327 0.00850891 0.00356201 -0.0146156 -0.0143245 6.22716e-05 0.000362649 -5.02469e-05 0.0005 1.46608e-07 
68 1 0.038528 0.0216625 0.0147027 0.000787352 0.00862253 -0.00629704 1.14544e-05 1.37729e-05 -1.56715e-05 0.0005 1.46608e-07 
71 1 0.0185739 0.0209075 0.00762264 0.00053675 -0.0184977 -0.00847611 -5.44219e-09 -1.48679e-08 2.70123e-09 0.0005 1.46608e-07 
73 1 0.0163242 0.0150146 0.013362 0.00487304 0.000411924 0.00296702 1.34515e-07 1.3901e-07 -8.05861e-07 0.0005 1.46608e-07 
74 1 0.0290521 0.0151677 0.00989141 0.000137474 -0.00722071 0.0199705 -2.71945e-08 -1.54139e-08 4.07616e-08 0.0005 1.46608e-07 
76 1 0.0167804 0.0147242 0.0125209 0.00109848 -0.000568821 0.00100776 -8.076e-08 -4.21535e-07 3.15242e-08 0.0005 1.46608e-07 
79 1 0.0345489 0.0148061 0.0120744 -0.000420191 0.00147967 0.0111379 -0.00637902 0.0407821 -0.0127449 0.0005 1.46608e-07 
84 1 0.0301494 0.0189136 0.00720755 0.00036852 -0.0200809 0.000348398 -2.41759e-09 -1.02104e-07 1.1822e-08 0.0005 1.46608e-07 
87 1 0.0353951 0.0158079 0.00865328 0.000425261 -0.0122021 0.0149216 -2.94278e-09 2.93012e-09 6.10775e-09 0.0005 1.46608e-07 
88 1 0.0341882 0.0165617 0.0150061 0.000794808 0.00979798 0.00827055 -9.92492e-09 2.01749e-07 3.80514e-08 0.0005 1.46608e-07 
89 1 0.0388083 0.0205088 0.015586 0.00266108 0.00676291 -0.00144912 2.66466e-05 -6.22594e-06 1.05559e-06 0.0005 1.46608e-07 
90 1 0.0284954 0.0148629 0.0122207 0.000381931 0.00417442 0.0198853 -1.25612e-09 1.20982e-08 4.08468e-09 0.0005 1.46608e-07 
92 1 0.034316 0.0150107 0.0129387 0.000487046 0.00634458 0.0179803 0.000165927 -0.000567369 8.24717e-05 0.0005 1.46608e-07 
97 1 0.0193561 0.0224142 0.014335 -2.52598e-06 0.0147393 -0.0174668 6.68004e-13 -1.32994e-08 -1.12228e-08 0.0005 1.46608e-07 
103 1 0.0325092 0.0216219 0.0149196 0.000142478 0.0189268 -0.0123556 2.38175e-10 -2.41356e-09 -1.28111e-08 0.0005 1.46608e-07 
106 1 0.0184929 0.0240967 0.012982 2.76903e-05 0.00128091 -0.000982666 -8.34793e-08 1.48225e-08 2.91142e-08 0.0005 1.46608e-07 
108 1 0.0214483 0.0168437 0.00645098 -2.38765e-14 5.08408e-14 1.84347e-13 1.42699e-19 3.13932e-20 5.92923e-21 0.0005 1.46608e-07 
109 1 0.0237668 0.0173935 0.00750682 2.7204e-05 -0.0215995 0.00711942 1.00788e-09 1.86451e-09 1.12857e-08 0.0005 1.46608e-07 
110 1 0.020856 0.0234794 0.0119336 -2.89427e-05 -0.000418608 0.00173317 -8.13712e-07 5.13014e-07 7.01963e-06 0.0005 1.46608e-07 
112 1 0.0310659 0.022569 0.00902056 0.00127221 -0.0112485 -0.0131295 -1.78384e-07 5.30915e-07 5.59884e-07 0.0005 1.46608e-07 
116 1 0.0180462 0.0237684 0.0138142 0.000821263 0.000158489 -0.000960028 2.64689e-08 1.39192e-07 -4.0508e-07 0.0005 1.46608e-07 
121 1 0.0551527 0.0181697 0.00595147 -1.30044e-14 -1.76655e-14 -2.51655e-13 6.69685e-21 -1.92965e-20 1.27055e-21 0.0005 1.46608e-07 
122 1 0.0404609 0.0148925 0.0124138 0.000708917 0.00197981 0.0237163 -2.39541e-08 -6.73976e-09 -3.1711e-08 0.0005 1.46608e-07 
124 1 0.0157575 0.0235208 0.0143189 0.0139696 0.00285793 -0.0151966 1.28754e-07 -9.27017e-09 -2.10478e-07 0.0005 1.46608e-07 
125 1 0.0402133 0.0151711 0.0133653 0.00135938 0.00829999 0.0149611 -7.41725e-09 1.75612e-08 1.43382e-08 0.0005 1.46608e-07 
126 1 0.0213292 0.023956 0.0133496 0.000145468 -0.000144755 -0.000127276 -1.53423e-07 1.76535e-07 -2.00132e-07 0.0005 1.46608e-07 
128 1 0.0303903 0.00406748 0.0435188 -9.67556e-317 -9.75879e-317 -3.22607e-12 0 0 0 0.0005 1.46608e-07 
130 1 0.0264001 0.0219611 0.0144805 0.000351062 0.0163339 -0.0139934 1.23102e-08 -1.2826e-08 -1.64363e-08 0.0005 1.46608e-07 
131 1 0.0373179 0.0210026 0.00769219 0.00188372 0.00320961 -0.00437963 -0.00635105 -0.000237463 0.0215174 0.0005 1.46608e-07 
133 1 0.0202377 0.0229305 0.0136932 0.00992661 0.000302806 0.00453127 0 0 -1.43822e-06 0.0005 1.46608e-07 
135 1 0.0389586 0.0199869 0.0156831 0.00455237 -0.000903927 0.00216356 -8.53431e-06 1.86738e-06 7.52929e-06 0.0005 1.46608e-07 
137 1 0.0307275 0.0188227 0.00574705 -1.48116e-14 1.3774e-16 -1.73752e-13 -1.05879e-22 -1.33e-20 0 0.0005 1.46608e-07 
138 1 0.0203462 0.0241064 0.0134531 0.000330372 0.000207272 -0.000299595 -3.70319e-07 -2.98362e-07 -2.0766e-08 0.0005 1.46608e-07 
139 1 0.0292495 0.0154958 0.00908927 0.0013736 -0.00949619 0.0151706 -1.49812e-08 -8.58932e-09 4.19136e-08 0.0005 1.46608e-07 
141 1 0.0268187 0.0205124 0.0156078 0.000256989 0.0200604 -0.00673969 -5.28488e-10 3.04517e-09 -1.28543e-08 0.0005 1.46608e-07 
142 1 0.0413757 0.0158806 0.00870939 0.00194881 -0.0102893 0.012705 -1.48501e-09 -4.47587e-09 1.99395e-08 0.0005 1.46608e-07 
143 1 0.032757 0.0206826 0.0153825 0.000403662 0.0192709 -0.00854428 -9.11291e-07 -1.76582e-06 -6.33549e-07 0.0005 1.46608e-07 
147 1 0.0305185 0.0206542 0.00751555 0.000584145 -0.0178314 -0.0062296 -3.3543e-09 -1.51619e-08 1.89816e-09 0.0005 1.46608e-07 
149 1 0.0570019 0.0175547 0.00590579 4.36226e-15 1.18852e-14 2.80768e-13 -1.63616e-20 7.25272e-21 0 0.0005 1.46608e-07 
150 1 0.0201332 0.0233105 0.0106797 3.46378e-05 -0.00260474 -0.0146681 -3.34904e-07 -1.48359e-07 1.27446e-07 0.0005 1.46608e-07 
151 1 0.0235047 0.0174223 0.0156318 4.80594e-05 0.0212527 0.00838007 -1.55218e-08 7.7789e-08 1.85159e-08 0.0005 1.46608e-07 
157 1 0.0203324 0.0233209 0.012773 0.0041656 -0.00132989 -0.000680654 0 0 -1.43822e-06 0.0005 1.46608e-07 
158 1 0.0221285 0.0154628 0.0141216 0.00391866 0.00304367 0.00412225 1.00494e-07 -2.78937e-07 -3.622e-07 0.0005 1.46608e-07 
160 1 0.037161 0.022829 0.00956209 0.0010982 -0.0102941 -0.0157179 -2.77144e-10 -9.23377e-08 -1.09868e-07 0.0005 1.46608e-07 
161 1 0.0221348 0.00230077 0.0435188 9.74157e-317 -9.69799e-317 9.23294e-13 0 0 0 0.0005 1.46608e-07 
165 1 0.0237358 0.0157353 0.0144834 0.00202744 0.00120632 0.00197416 -3.3152e-07 -2.47079e-07 -4.18939e-07 0.0005 1.46608e-07 
166 1 0.0316375 0.0233787 0.0111957 0.000333206 -0.000659654 -0.0214884 1.7621e-10 -1.11027e-08 -3.52408e-09 0.0005 1.46608e-07 
167 1 0.0144037 0.0225073 0.0142973 0.00320376 0.00116732 -0.00229275 -1.34273e-08 -5.60745e-10 2.18608e-08 0.0005 1.46608e-07 
170 1 0.0216056 0.0142745 0.0137808 -0.0122548 -0.00260848 -0.0100465 1.24175e-09 -2.08511e-08 4.4939e-08 0.0005 1.46608e-07 
171 1 0.0173799 0.0240339 0.0131175 4.50972e-05 0.000413121 -0.000292633 -2.03781e-07 -2.89001e-07 5.28396e-08 0.0005 1.46608e-07 
173 1 0.0465026 0.0201103 0.00581477 1.06589e-14 -2.29139e-14 -2.37919e-13 3.95723e-21 3.33519e-21 0 0.0005 1.46608e-07 
174 1 0.0234972 0.0159054 0.00858444 0.000168325 -0.0121755 0.0124801 -2.03444e-08 -6.74878e-09 2.04269e-08 0.0005 1.46608e-07 
179 1 0.067984 0.0193424 0.00575613 3.87821e-15 7.54021e-15 2.61625e-13 -2.23471e-20 1.63716e-20 0 0.0005 1.46608e-07 
185 1 0.0340981 0.015436 0.0137842 0.000142454 0.0110942 0.0187261 -7.84968e-07 -6.38385e-07 2.74041e-06 0.0005 1.46608e-07 
186 1 0.0322819 0.0225321 0.0140514 0.000699287 0.0115125 -0.0162527 -2.49559e-09 -4.87606e-09 -1.33197e-08 0.0005 1.46608e-07 
187 1 0.0313913 0.0232221 0.0102617 0.00065447 -0.00582017 -0.0194388 -4.12095e-09 -1.30318e-08 -7.70661e-09 0.0005 1.46608e-07 
191 1 0.0192902 0.0230462 0.009944 0.000768273 -0.00763841 -0.0180747 -3.17701e-09 -1.4839e-08 -5.1469e-09 0.0005 1.46608e-07 
193 1 0.0245476 0.0198163 0.00585259 2.60875e-15 4.19939e-16 -4.25291e-14 -6.61744e-22 2.83888e-21 0 0.0005 1.46608e-07 
194 1 0.0307567 0.0214318 0.00788879 0.00169656 -0.0134815 -0.00943976 -1.42604e-08 -2.93382e-08 -1.13233e-08 0.0005 1.46608e-07 
197 1 0.0329889 0.0198061 0.0157159 0.000872173 0.0181592 -0.00505262 6.98959e-07 -3.15728e-07 1.00364e-07 0.0005 1.46608e-07 
200 1 0.0218229 0.0164491 0.0151929 -2.50551e-05 0.0188665 0.0139506 8.20631e-09 6.26885e-08 -1.14708e-07 0.0005 1.46608e-07 
205 1 0.0331821 0.0190565 0.015785 0.00346431 0.0167931 0.000755511 -5.64918e-07 4.13587e-07 1.54387e-07 0.0005 1.46608e-07 
206 1 0.0226454 0.0226559 0.0151967 -0.00258936 -0.00194919 -0.00208905 0 0 -1.43822e-06 0.0005 1.46608e-07 
215 1 0.026935 0.0188837 0.00598981 1.43032e-14 2.3042e-15 -2.33189e-13 3.04402e-22 -2.63043e-22 0 0.0005 1.46608e-07 
225 1 0.0226793 0.0169145 0.0153998 0.000169782 0.0199349 0.0107843 -5.17796e-08 5.5431e-08 1.89501e-07 0.0005 1.46608e-07 
226 1 0.038607 0.0211428 0.0151703 0.00207568 0.0108496 -0.00735747 5.0822e-06 1.13467e-05 -2.90227e-05 0.0005 1.46608e-07 
227 1 0.0273197 0.0182163 0.0157195 0.000363342 0.0201996 0.00613711 -4.41435e-09 8.34703e-09 -1.13554e-08 0.0005 1.46608e-07 
229 1 0.0358285 0.0176713 0.00738501 0.000851682 -0.0174377 0.00615418 -3.66e-09 -1.05702e-08 1.72158e-08 0.0005 1.46608e-07 
232 1 0.0221996 0.00109062 0.0435188 9.58743e-317 9.68145e-317 4.97437e-14 0 0 0 0.0005 1.46608e-07 
235 1 0.0248723 0.0217123 0.0160315 -0.0032013 0.00307593 -0.00192124 1.69032e-06 -1.43187e-06 8.27153e-07 0.0005 1.46608e-07 
237 1 0.0355318 0.0164688 0.0080328 0.00121984 -0.0109318 0.0081452 1.14134e-08 4.24562e-08 2.1207e-08 0.0005 1.46608e-07 
240 1 0.0235589 0.0165729 0.0079891 0.000342979 -0.0167411 0.0118012 -1.16298e-08 -8.97674e-09 1.66541e-08 0.0005 1.46608e-07 
241 1 0.0277046 0.0168201 0.015069 0.000357033 0.0182402 0.0113984 -4.41454e-09 1.20167e-08 -4.16512e-09 0.0005 1.46608e-07 
242 1 0.0259294 0.0231686 0.0128966 0.00147133 0.00705016 -0.01649 1.16987e-08 -2.11876e-08 1.31001e-08 0.0005 1.46608e-07 
247 1 0.0396742 0.0168675 0.0152111 0.00229177 0.0104448 0.00709671 2.21224e-06 -1.65663e-06 -1.15462e-06 0.0005 1.46608e-07 
252 1 0.0208368 0.0215383 0.0151861 -0.00165471 0.058578 -0.0419352 1.31639e-08 1.29539e-07 -2.09835e-07 0.0005 1.46608e-07 
253 1 0.0895649 0.0187731 0.00575225 -1.31242e-14 1.90152e-14 2.5377e-13 5.87497e-19 3.59433e-19 3.17637e-21 0.0005 1.46608e-07 
256 1 0.0242229 0.019437 0.00719123 0.00135075 -0.0166372 -0.00137411 -5.02589e-11 6.07855e-09 2.6965e-08 0.0005 1.46608e-07 
257 1 0.0244203 0.0186218 0.00726987 -0.00198019 -0.0229968 0.00147151 2.64556e-08 9.0022e-08 -4.71184e-08 0.0005 1.46608e-07 
258 1 0.0339277 0.016014 0.0145365 0.0011685 0.0128717 0.0129067 4.43268e-08 6.92593e-08 4.25893e-08 0.0005 1.46608e-07 
260 1 0.108836 0.0200055 0.00584234 7.53125e-16 -1.27896e-15 -6.97474e-15 2.64698e-23 -1.16467e-21 2.11758e-22 0.0005 1.46608e-07 
263 1 0.0216189 0.0224348 0.0143825 -8.40569e-05 -0.000600138 -0.000551655 2.92964e-07 9.66574e-08 -2.99784e-07 0.0005 1.46608e-07 
268 1 0.0184544 0.0146859 0.0124229 0.00979516 -0.00522524 -0.0182802 7.85587e-07 3.88884e-07 1.1596e-06 0.0005 1.46608e-07 
269 1 0.0280873 0.0153654 0.0136668 -0.000384841 0.0106506 0.0192642 1.08367e-08 2.93741e-08 2.29421e-08 0.0005 1.46608e-07 
270 1 0.025916 0.0233861 0.0110667 0.000483044 -0.00138836 -0.0180025 -2.65897e-08 -6.71432e-08 -6.22769e-08 0.0005 1.46608e-07 
271 1 0.0299031 0.0178924 0.00734561 0.000338757 -0.0202129 0.00558273 -1.90799e-09 -3.65802e-09 1.15226e-08 0.0005 1.46608e-07 
272 1 0.0242587 0.0223558 0.0155742 -0.00434344 0.00382456 -0.0025726 -2.5348e-06 -2.82876e-07 2.23275e-07 0.0005 1.46608e-07 
274 1 0.0193742 0.0243322 0.0133912 0.000385358 0.000864005 -0.00104363 -5.06145e-07 4.23615e-07 8.60354e-07 0.0005 1.46608e-07 
275 1 0.0257449 0.0233661 0.0119288 0.000325093 0.00237622 -0.0203729 1.3886e-07 1.50801e-09 5.33816e-07 0.0005 1.46608e-07 
277 1 0.0219058 0.0217369 0.0150386 0.00448297 0.000683649 -0.000788098 1.02255e-07 -5.56956e-07 2.7408e-07 0.0005 1.46608e-07 
282 1 0.020624 0.0223402 0.0144962 -0.00830177 0.0175724 -0.0254113 0 0 -1.43822e-06 0.0005 1.46608e-07 
284 1 0.00937694 0.00505359 0.0435188 -9.68799e-317 -9.69932e-317 9.23294e-13 0 0 0 0.0005 1.46608e-07 
288 1 0.0205568 0.0151202 0.0150942 -0.00401165 -0.0513053 0.0450643 0 0 -1.43822e-06 0.0005 1.46608e-07 
291 1 0.0195597 0.0226034 0.00915192 -0.000109895 -0.0113877 -0.0182367 -1.90034e-10 -1.04905e-08 9.72475e-10 0.0005 1.46608e-07 
294 1 0.0198046 0.0140058 0.0129608 2.84936e-05 -0.000605838 0.00100622 6.09302e-10 -1.33869e-08 2.22263e-08 0.0005 1.46608e-07 
299 1 0.0254808 0.018723 0.00589902 -2.07803e-14 -3.30805e-15 3.38792e-13 -1.05879e-22 -2.4114e-20 -6.35275e-22 0.0005 1.46608e-07 
300 1 0.0318198 0.0232968 0.0122476 0.000860037 0.00385483 -0.018959 -3.6272e-08 -1.81784e-08 3.34306e-08 0.0005 1.46608e-07 
