ITEM: TIMESTEP
600000
ITEM: NUMBER OF ATOMS
150
ITEM: BOX BOUNDS ff ff ff
-0.02 0.43
-0.02 0.06
-0.02 0.07
ITEM: ATOMS id type x y z vx vy vz fx fy fz radius mass 
1 1 0.0202377 0.0231405 0.0146622 0.0168299 0.00420613 0.00296614 2.42901e-07 4.5832e-06 -3.45294e-06 0.0005 1.46608e-07 
2 1 0.0174472 0.0229051 0.0150887 0.00120444 0.0018009 -0.00273218 5.1242e-08 1.48437e-06 4.90774e-07 0.0005 1.46608e-07 
3 1 0.0244126 0.0221483 0.0157703 0.00981648 0.00563356 -0.00306964 -3.17202e-08 -2.90608e-06 1.9656e-06 0.0005 1.46608e-07 
4 1 0.0167005 0.0212283 0.0162832 0.0144625 0.0320456 -0.014289 -3.70252e-07 8.77443e-08 -6.61831e-08 0.0005 1.46608e-07 
5 1 0.0217563 0.0153094 0.0139208 0.00435727 0.000420227 -0.00208172 1.07756e-06 1.25758e-06 1.72222e-06 0.0005 1.46608e-07 
6 1 0.0170359 0.0146682 0.0122847 0.00642716 0.000429331 -0.00904179 1.06159e-07 -6.61402e-09 -2.23344e-07 0.0005 1.46608e-07 
7 1 0.0171576 0.0141859 0.0133516 -0.00736682 0.00544439 -0.00927069 2.50895e-06 2.02359e-06 4.09305e-06 0.0005 1.46608e-07 
8 1 0.0227627 0.0216971 0.0160234 -0.00577751 0.00508905 -0.00275694 2.30495e-07 6.01483e-07 -1.18062e-06 0.0005 1.46608e-07 
9 1 0.0206875 0.0240681 0.0129909 0.000419053 0.000510007 -0.000913637 1.27528e-05 2.73629e-06 1.36563e-05 0.0005 1.46608e-07 
10 1 0.0185232 0.0232182 0.0129532 0.00235138 0.00321133 -0.0062115 6.04452e-06 -4.1115e-06 3.67228e-05 0.0005 1.46608e-07 
11 1 0.014244 0.0220096 0.0148149 0.00434765 0.0173229 -0.0154467 1.75758e-08 1.5674e-08 -3.50559e-08 0.0005 1.46608e-07 
12 1 0.0191926 0.0233501 0.0124998 0.00322544 0.00109765 -0.000472958 -8.86846e-06 -9.97219e-07 1.49313e-05 0.0005 1.46608e-07 
13 1 0.0161969 0.023686 0.0139922 0.000927825 0.000762371 -0.000666706 -2.14162e-07 7.8575e-07 1.7571e-07 0.0005 1.46608e-07 
14 1 0.0179066 0.023782 0.0149514 0.000729686 0.000658498 -0.000864161 -1.95614e-06 1.39422e-06 -1.44358e-06 0.0005 1.46608e-07 
15 1 0.0215538 0.0159295 0.0146851 0.00165692 -0.00224085 -0.000505052 -3.54585e-08 -1.98144e-07 -3.93441e-07 0.0005 1.46608e-07 
16 1 0.0180078 0.0143451 0.0138531 -0.00653127 0.00313978 -0.00392946 1.44892e-06 1.43655e-06 1.48769e-06 0.0005 1.46608e-07 
17 1 0.0215309 0.0239085 0.0134706 -0.000580819 -0.00026431 -0.000451938 1.39082e-05 1.00353e-06 8.45877e-07 0.0005 1.46608e-07 
18 1 0.0203499 0.0232282 0.0129375 0.00226295 0.00131834 -0.0049948 1.2671e-05 4.45101e-06 -3.7634e-07 0.0005 1.46608e-07 
19 1 0.0180468 0.0241511 0.0132329 0.001561 -0.00277923 -0.00680575 -2.76569e-08 -4.27168e-07 -8.69166e-07 0.0005 1.46608e-07 
20 1 0.0211099 0.0146705 0.0123314 0.00426486 0.00203999 0.00101227 -4.44468e-07 -7.90981e-07 1.16488e-06 0.0005 1.46608e-07 
21 1 0.0195758 0.0230609 0.0133928 0.00341262 5.13612e-05 -0.00326035 1.26781e-05 1.10682e-05 -2.98116e-05 0.0005 1.46608e-07 
22 1 0.0189935 0.0138287 0.0138273 -0.00854557 0.0120571 -0.0140955 0 0 -1.43822e-06 0.0005 1.46608e-07 
23 1 0.0170625 0.0239953 0.013317 0.0014042 -0.000482005 -0.00217506 1.38539e-08 -4.88173e-07 -1.52267e-07 0.0005 1.46608e-07 
24 1 0.0208028 0.0151647 0.0136571 0.00434624 0.000430519 -0.000296939 -1.3081e-09 2.04109e-06 4.06397e-06 0.0005 1.46608e-07 
25 1 0.0195407 0.0139926 0.0130012 0.00406928 -0.00309325 -0.010371 -2.02575e-07 3.87838e-06 -7.63001e-08 0.0005 1.46608e-07 
26 1 0.0157345 0.0227463 0.0152362 0.00254312 -0.000696083 0.00109752 -1.00813e-06 6.55794e-07 -7.72232e-07 0.0005 1.46608e-07 
27 1 0.0193168 0.0234689 0.0116816 0.00117449 2.63139e-05 0.000482817 -1.29272e-05 3.41743e-07 9.48548e-06 0.0005 1.46608e-07 
28 1 0.0184249 0.0140099 0.0130085 0.00130256 -0.000433136 0.00114549 -1.06576e-06 -7.7321e-07 1.53167e-06 0.0005 1.46608e-07 
29 1 0.0176122 0.0221629 0.0157378 0.00423229 0.00341675 -0.00355377 -1.79461e-06 -8.38076e-06 3.99712e-06 0.0005 1.46608e-07 
30 1 0.0194957 0.0237622 0.0143028 -0.00292301 0.0280694 0.0382759 0 0 -1.43822e-06 0.0005 1.46608e-07 
31 1 0.0184363 0.0238367 0.0141005 0.00190154 0.0087562 -0.00485969 0 0 -1.43822e-06 0.0005 1.46608e-07 
32 1 0.0207225 0.0228639 0.0137898 0.00508052 0.00430232 -0.00230554 -5.92556e-06 6.58683e-06 -1.99631e-05 0.0005 1.46608e-07 
33 1 0.021215 0.0229573 0.0152188 -0.0051949 0.00439117 -0.00147334 9.5561e-07 -2.10357e-06 1.67702e-06 0.0005 1.46608e-07 
34 1 0.0177759 0.0227658 0.00963224 0.000444028 -0.00981708 -0.0184426 -3.02202e-09 -1.26615e-08 -4.4382e-10 0.0005 1.46608e-07 
35 1 0.0201761 0.0216103 0.0151486 -6.35752e-05 0.0169939 -0.0117495 1.64601e-07 -2.17101e-08 -2.17903e-07 0.0005 1.46608e-07 
36 1 0.0198678 0.0244688 0.013598 0.000910129 0.000161602 -6.51718e-05 2.50019e-06 -1.96679e-07 -1.13768e-05 0.0005 1.46608e-07 
37 1 0.020382 0.0164563 0.0151146 0.00515289 -0.00107508 -0.00226076 3.8474e-08 -1.12228e-07 -6.32728e-08 0.0005 1.46608e-07 
38 1 0.0193442 0.0210717 0.0154583 1.36309e-05 0.0195694 -0.00995206 3.73345e-10 2.93594e-08 -3.38573e-08 0.0005 1.46608e-07 
39 1 0.0221607 0.0231329 0.0148896 -0.00393977 0.00177424 0.00147806 6.82591e-06 -8.34772e-08 -4.87129e-07 0.0005 1.46608e-07 
40 1 0.0213738 0.0235039 0.0143967 0.00289318 0.0026384 0.000933078 1.15874e-05 -1.6342e-06 5.86093e-06 0.0005 1.46608e-07 
41 1 0.0186218 0.0230859 0.0148636 0.0184498 0.0199863 -0.0366862 -3.65982e-08 4.00329e-07 -8.52958e-07 0.0005 1.46608e-07 
42 1 0.0205871 0.0157293 0.0144553 0.00507945 0.000970752 0.000297283 1.04319e-07 -2.94696e-07 4.77929e-08 0.0005 1.46608e-07 
43 1 0.0153908 0.023352 0.0145186 -0.000261632 -0.00145709 -8.76213e-05 1.39281e-07 2.17711e-07 -8.76378e-07 0.0005 1.46608e-07 
44 1 0.0184935 0.019781 0.0167411 -0.030371 0.0111195 -0.00220929 0 0 -1.43822e-06 0.0005 1.46608e-07 
45 1 0.0223281 0.023664 0.0140341 -0.00235731 0.00170457 0.000907337 2.50225e-08 1.73076e-06 -8.11198e-07 0.0005 1.46608e-07 
46 1 0.0211531 0.0214286 0.0152635 -2.48892e-07 0.0179766 -0.0114934 -1.45566e-11 2.91001e-08 -3.25674e-08 0.0005 1.46608e-07 
47 1 0.021889 0.022324 0.0155989 0.000791592 0.00507478 -0.00397226 6.06678e-07 4.75735e-07 -1.2253e-06 0.0005 1.46608e-07 
48 1 0.0202725 0.0137898 0.0136614 0.00318832 0.00215632 -0.00165034 -1.64226e-06 1.6944e-06 3.11287e-07 0.0005 1.46608e-07 
49 1 0.0232118 0.0225126 0.0174357 -0.00755008 -0.0389954 -0.155234 0 0 -1.43822e-06 0.0005 1.46608e-07 
50 1 0.0208649 0.0222708 0.0145815 0.00135929 0.00977332 -0.00958807 8.59036e-06 -2.70159e-05 2.98633e-05 0.0005 1.46608e-07 
51 1 0.0151827 0.0213153 0.0153222 -0.00229316 0.0227755 -0.0122186 0 0 -1.43822e-06 0.0005 1.46608e-07 
52 1 0.0198112 0.023988 0.0126586 0.0013039 0.000489565 -0.000317142 -2.44027e-07 4.12717e-06 1.06316e-05 0.0005 1.46608e-07 
53 1 0.0231094 0.0232889 0.0146151 -0.00358906 0.00252026 0.000524912 -1.26429e-06 9.90895e-07 6.87795e-07 0.0005 1.46608e-07 
54 1 0.0187817 0.0229294 0.013831 0.00299503 0.00304668 -0.00469291 1.46262e-06 7.51419e-06 -3.04538e-06 0.0005 1.46608e-07 
55 1 0.022776 0.0226309 0.0163804 -0.0035917 0.00363056 9.10377e-05 1.54378e-07 -1.48299e-07 -2.59189e-07 0.0005 1.46608e-07 
56 1 0.0235837 0.0211971 0.0162987 0.0038684 0.0182375 -0.00833769 3.49808e-07 -9.91923e-07 2.61846e-07 0.0005 1.46608e-07 
57 1 0.0172919 0.0235694 0.014192 0.00268535 -0.000128773 -0.00139003 -9.90843e-07 -4.6101e-07 -3.06503e-08 0.0005 1.46608e-07 
58 1 0.0183738 0.0238534 0.0123307 0.00239288 0.00131392 -0.0030832 3.26968e-07 -6.86417e-07 1.84783e-05 0.0005 1.46608e-07 
59 1 0.0206101 0.0205414 0.0156887 -7.4443e-07 0.019271 -0.00697311 4.10756e-10 2.6333e-08 -2.22844e-08 0.0005 1.46608e-07 
60 1 0.0182164 0.0233693 0.0111904 0.000407984 0.000659268 -0.00599225 1.10356e-08 4.0197e-08 7.15719e-08 0.0005 1.46608e-07 
61 1 0.0165335 0.0231619 0.0147742 0.0015071 0.00223601 -0.000767604 -2.07648e-06 9.9103e-07 -2.37685e-06 0.0005 1.46608e-07 
62 1 0.0205228 0.0238215 0.0139795 0.00378408 0.00236487 -0.000222411 1.5142e-06 5.58303e-06 -1.23501e-05 0.0005 1.46608e-07 
63 1 0.0221124 0.0220731 0.0168789 -0.00551388 0.00489888 -0.00124441 -1.09693e-07 8.39471e-07 1.43572e-08 0.0005 1.46608e-07 
64 1 0.022036 0.0148817 0.0130614 0.000289596 0.000473375 -0.00246803 2.43885e-06 2.17872e-07 1.09837e-06 0.0005 1.46608e-07 
65 1 0.0210735 0.0142197 0.0132231 0.000684806 2.9098e-05 0.000429755 4.55978e-07 -3.71747e-07 8.10772e-07 0.0005 1.46608e-07 
66 1 0.0217918 0.0214859 0.0161358 -0.00752136 0.0112199 -0.00537634 -3.40642e-07 8.61597e-07 -4.30097e-09 0.0005 1.46608e-07 
67 1 0.0223267 0.0203368 0.0165914 -4.80403e-09 0.0239896 -0.00593074 -8.26029e-15 -3.94623e-09 -1.63837e-08 0.0005 1.46608e-07 
68 1 0.022832 0.0225788 0.015382 -0.00238646 3.20198e-05 0.000500445 -1.36446e-06 1.68676e-06 -1.63139e-06 0.0005 1.46608e-07 
69 1 0.0252174 0.021191 0.0159452 0.000131599 0.00366067 0.00217886 -2.33934e-05 7.948e-05 8.75163e-06 0.0005 1.46608e-07 
70 1 0.0238079 0.0227577 0.0152577 -0.000754161 4.79341e-05 -0.000121327 -1.51642e-06 -2.07109e-06 1.19998e-06 0.0005 1.46608e-07 
71 1 0.0180951 0.0214286 0.0162144 0.0125134 0.00479483 -0.00197648 1.10195e-06 -3.27501e-06 7.46061e-07 0.0005 1.46608e-07 
72 1 0.0162737 0.0148525 0.0129591 0.00746001 -0.00161773 -0.00692428 4.95649e-09 -2.05205e-08 2.89921e-08 0.0005 1.46608e-07 
73 1 0.0170043 0.0235662 0.0156941 0.00160535 0.000386699 -0.00413721 -2.3707e-06 3.01975e-07 2.57095e-06 0.0005 1.46608e-07 
74 1 0.0190478 0.0239882 0.0133022 0.00110943 0.00122943 -0.00268194 -6.56626e-06 5.94818e-06 -1.32147e-05 0.0005 1.46608e-07 
75 1 0.0187978 0.0223462 0.015597 -0.00606698 0.0227278 -0.0154199 8.73048e-07 3.20152e-07 -6.93224e-07 0.0005 1.46608e-07 
76 1 0.0156224 0.0210079 0.0265204 0 -0 -0.03 0 0 0 0.0005 1.46608e-07 
77 1 0.0195756 0.0220838 0.0301758 0 -0 -0.03 0 0 0 0.0005 1.46608e-07 
78 1 0.0198023 0.0211495 0.0275623 0 -0 -0.03 0 0 0 0.0005 1.46608e-07 
79 1 0.0212653 0.0209509 0.0228413 0 -0 -0.03 0 0 0 0.0005 1.46608e-07 
80 1 0.0168752 0.021301 0.026094 0 -0 -0.03 0 0 0 0.0005 1.46608e-07 
81 1 0.0204416 0.0185814 0.0201004 0 -0 -0.03 0 0 0 0.0005 1.46608e-07 
82 1 0.0181484 0.0223897 0.0250664 0 -0 -0.03 0 0 0 0.0005 1.46608e-07 
83 1 0.0199927 0.0200304 0.0282644 0 -0 -0.03 0 0 0 0.0005 1.46608e-07 
84 1 0.0198792 0.0146647 0.0144862 0.00454731 -0.036988 -0.0167323 0 0 -1.43822e-06 0.0005 1.46608e-07 
85 1 0.0163497 0.0195255 0.0304014 0 -0 -0.03 0 0 0 0.0005 1.46608e-07 
86 1 0.0198393 0.0155082 0.0237522 0 -0 -0.03 0 0 0 0.0005 1.46608e-07 
87 1 0.0168839 0.016962 0.0205941 0 -0 -0.03 0 0 0 0.0005 1.46608e-07 
88 1 0.0159541 0.0180074 0.028335 0 -0 -0.03 0 0 0 0.0005 1.46608e-07 
89 1 0.021096 0.0209748 0.0187467 0 -0 -0.03 0 0 0 0.0005 1.46608e-07 
90 1 0.0185116 0.0168101 0.0292165 0 -0 -0.03 0 0 0 0.0005 1.46608e-07 
91 1 0.0161146 0.0176486 0.0194689 0 -0 -0.03 0 0 0 0.0005 1.46608e-07 
92 1 0.0166542 0.0224589 0.0155033 0.00313256 0.00217313 -2.4811e-05 -2.07535e-07 -1.10117e-06 -1.55819e-06 0.0005 1.46608e-07 
93 1 0.0174748 0.0198996 0.0234982 0 -0 -0.03 0 0 0 0.0005 1.46608e-07 
94 1 0.0178878 0.0163826 0.0239745 0 -0 -0.03 0 0 0 0.0005 1.46608e-07 
95 1 0.0203839 0.0232799 0.0219857 0 -0 -0.03 0 0 0 0.0005 1.46608e-07 
96 1 0.0169098 0.0165019 0.0160837 -0.00148218 -0.0127784 -0.00574013 -3.24427e-09 -2.04324e-08 3.67284e-08 0.0005 1.46608e-07 
97 1 0.0159022 0.0208424 0.025201 0 -0 -0.03 0 0 0 0.0005 1.46608e-07 
98 1 0.0226245 0.01886 0.0265949 0 -0 -0.03 0 0 0 0.0005 1.46608e-07 
99 1 0.0182239 0.0232236 0.0238875 0 -0 -0.03 0 0 0 0.0005 1.46608e-07 
100 1 0.0211871 0.0217488 0.0298945 0 -0 -0.03 0 0 0 0.0005 1.46608e-07 
101 1 0.0158706 0.0178038 0.0246615 0 -0 -0.03 0 0 0 0.0005 1.46608e-07 
102 1 0.0188287 0.019202 0.0186617 0 -0 -0.03 0 0 0 0.0005 1.46608e-07 
103 1 0.017375 0.0207121 0.02479 0 -0 -0.03 0 0 0 0.0005 1.46608e-07 
104 1 0.0187109 0.0235556 0.0186801 0 -0 -0.03 0 0 0 0.0005 1.46608e-07 
105 1 0.0161581 0.0156658 0.0189727 0 -0 -0.03 0 0 0 0.0005 1.46608e-07 
106 1 0.0140536 0.0226047 0.0155956 0.0135592 0.0207531 -0.0158089 -9.29115e-09 -3.40409e-08 -1.96142e-08 0.0005 1.46608e-07 
107 1 0.0196681 0.0235835 0.0154189 -0.0207754 -0.00512406 -0.0255258 0 0 -1.43822e-06 0.0005 1.46608e-07 
108 1 0.0216355 0.0185579 0.0159141 -1.09967e-10 0.0203696 0.00231479 1.65079e-12 1.33196e-09 -1.35728e-08 0.0005 1.46608e-07 
109 1 0.0194077 0.0203032 0.016584 -0.0179741 0.0418015 -0.0421204 0 0 -1.43822e-06 0.0005 1.46608e-07 
110 1 0.01617 0.0189135 0.0183305 0 0 -0.0537647 0 0 -1.43822e-06 0.0005 1.46608e-07 
111 1 0.0163867 0.0158228 0.0266807 0 -0 -0.03 0 0 0 0.0005 1.46608e-07 
112 1 0.0174724 0.0185867 0.025321 0 -0 -0.03 0 0 0 0.0005 1.46608e-07 
113 1 0.0156296 0.0216729 0.0164999 0.0175495 0.0502365 -0.0322048 0 0 -1.43822e-06 0.0005 1.46608e-07 
114 1 0.0173038 0.0232965 0.0221749 0 -0 -0.03 0 0 0 0.0005 1.46608e-07 
115 1 0.0161578 0.0224653 0.0232105 0 -0 -0.03 0 0 0 0.0005 1.46608e-07 
116 1 0.0176255 0.0151962 0.0207348 0 -0 -0.03 0 0 0 0.0005 1.46608e-07 
117 1 0.0184226 0.0209162 0.022907 0 -0 -0.03 0 0 0 0.0005 1.46608e-07 
118 1 0.0229587 0.0180441 0.0207254 0 -0 -0.03 0 0 0 0.0005 1.46608e-07 
119 1 0.0175423 0.0233519 0.0288213 0 -0 -0.03 0 0 0 0.0005 1.46608e-07 
120 1 0.0203603 0.0174403 0.0156547 1.11407e-05 0.0155651 0.00655221 -5.21063e-10 1.87458e-07 4.80745e-08 0.0005 1.46608e-07 
121 1 0.0215956 0.0158621 0.0207948 0 -0 -0.03 0 0 0 0.0005 1.46608e-07 
122 1 0.019708 0.0224919 0.0152085 -0.00237601 0.0145684 -0.00788858 -1.93275e-07 -3.42287e-06 3.77858e-07 0.0005 1.46608e-07 
123 1 0.0187086 0.0189789 0.0207842 0 -0 -0.03 0 0 0 0.0005 1.46608e-07 
124 1 0.0218324 0.0162383 0.0280752 0 -0 -0.03 0 0 0 0.0005 1.46608e-07 
125 1 0.0211063 0.0161532 0.0183884 0 0 -0.0418652 0 0 -1.43822e-06 0.0005 1.46608e-07 
126 1 0.017442 0.0184938 0.0267372 0 -0 -0.03 0 0 0 0.0005 1.46608e-07 
127 1 0.0210262 0.0208862 0.0304486 0 -0 -0.03 0 0 0 0.0005 1.46608e-07 
128 1 0.0204693 0.0195001 0.0228857 0 -0 -0.03 0 0 0 0.0005 1.46608e-07 
129 1 0.016032 0.0189085 0.0232588 0 -0 -0.03 0 0 0 0.0005 1.46608e-07 
130 1 0.0196833 0.0163685 0.0227014 0 -0 -0.03 0 0 0 0.0005 1.46608e-07 
131 1 0.0196976 0.0194351 0.0305016 0 -0 -0.03 0 0 0 0.0005 1.46608e-07 
132 1 0.0189828 0.0202927 0.0290222 0 -0 -0.03 0 0 0 0.0005 1.46608e-07 
133 1 0.0215656 0.0228534 0.0195129 0 -0 -0.03 0 0 0 0.0005 1.46608e-07 
134 1 0.02107 0.0170872 0.0205903 0 -0 -0.03 0 0 0 0.0005 1.46608e-07 
135 1 0.0235608 0.0189073 0.0242853 0 -0 -0.03 0 0 0 0.0005 1.46608e-07 
136 1 0.0187601 0.0212681 0.0259327 0 -0 -0.03 0 0 0 0.0005 1.46608e-07 
137 1 0.0174796 0.0146028 0.0146622 -0.0490111 0.000405505 -0.0312513 1.59934e-09 3.90793e-08 -1.34168e-06 0.0005 1.46608e-07 
138 1 0.0213313 0.0181362 0.0309002 0 -0 -0.03 0 0 0 0.0005 1.46608e-07 
139 1 0.018635 0.0173842 0.0230349 0 -0 -0.03 0 0 0 0.0005 1.46608e-07 
140 1 0.0168374 0.0196392 0.0245142 0 -0 -0.03 0 0 0 0.0005 1.46608e-07 
141 1 0.0201674 0.0189734 0.0160255 0.00143728 0.016472 0.000184394 0 0 -1.43822e-06 0.0005 1.46608e-07 
142 1 0.0231437 0.0176511 0.0263749 0 -0 -0.03 0 0 0 0.0005 1.46608e-07 
143 1 0.019886 0.0165115 0.0303661 0 -0 -0.03 0 0 0 0.0005 1.46608e-07 
144 1 0.018431 0.0235276 0.0157905 0.0366234 0.0185994 -0.012085 0 0 -1.43822e-06 0.0005 1.46608e-07 
145 1 0.0188428 0.0223694 0.0226234 0 -0 -0.03 0 0 0 0.0005 1.46608e-07 
146 1 0.0170876 0.015219 0.023382 0 -0 -0.03 0 0 0 0.0005 1.46608e-07 
147 1 0.0195295 0.0186718 0.0236508 0 -0 -0.03 0 0 0 0.0005 1.46608e-07 
148 1 0.0162047 0.0182577 0.0261287 0 -0 -0.03 0 0 0 0.0005 1.46608e-07 
149 1 0.0217859 0.0142376 0.0140637 0.0904785 -0.0244219 -0.038026 0 0 -1.43822e-06 0.0005 1.46608e-07 
150 1 0.0227985 0.021626 0.0276547 0 -0 -0.03 0 0 0 0.0005 1.46608e-07 
