ITEM: TIMESTEP
5400000
ITEM: NUMBER OF ATOMS
227
ITEM: BOX BOUNDS ff ff ff
-0.02 0.43
-0.02 0.06
-0.02 0.07
ITEM: ATOMS id type x y z vx vy vz fx fy fz radius mass 
1 1 0.0180333 0.0239615 0.0121663 0.000836853 0.00297209 -0.00222313 -1.39834e-06 4.44894e-07 -1.50864e-06 0.0005 1.46608e-07 
2 1 0.0202448 0.0233756 0.0125388 0.00454087 -0.000898971 -0.00139207 -4.48313e-07 -8.10757e-07 -1.03463e-06 0.0005 1.46608e-07 
3 1 0.0195883 0.0241006 0.0144078 -0.000649693 -0.00287483 0.00290298 1.92585e-06 1.92401e-06 -7.35978e-06 0.0005 1.46608e-07 
4 1 0.0159966 0.0159922 0.0147514 0.0022268 0.00324423 -0.0245855 0 0 -1.43822e-06 0.0005 1.46608e-07 
5 1 0.0265036 0.0153737 0.0137268 0.000495202 0.00894507 0.015801 6.58285e-10 4.66049e-08 2.4903e-08 0.0005 1.46608e-07 
7 1 0.0231899 0.0214492 0.00813997 0.00147024 -0.0150099 -0.0107648 -3.34418e-08 -2.25062e-08 3.65791e-09 0.0005 1.46608e-07 
9 1 0.0191476 0.0237679 0.0155615 -0.00350057 -0.00181613 -0.0022587 -1.03588e-06 -3.06321e-07 4.87618e-07 0.0005 1.46608e-07 
11 1 0.020746 0.022304 0.0145426 0.00721257 -0.00281827 0.0100565 -1.03189e-07 3.4929e-06 -4.59838e-06 0.0005 1.46608e-07 
13 1 0.0189732 0.024443 0.0135661 0.000212508 -0.000177615 0.000294155 1.7151e-06 2.04221e-06 -5.73752e-06 0.0005 1.46608e-07 
15 1 0.00938048 0.0183393 0.00587271 3.6465e-15 5.32238e-16 -3.6901e-14 -1.56172e-21 1.13423e-20 0 0.0005 1.46608e-07 
16 1 0.0144338 0.021392 0.0152918 -0.000950812 -0.00156777 -0.000759466 1.45432e-06 -2.98283e-06 -1.91616e-06 0.0005 1.46608e-07 
17 1 0.0192539 0.0143242 0.0139304 0.00194368 0.000833472 0.000253539 -5.18366e-07 2.05391e-07 3.81112e-07 0.0005 1.46608e-07 
18 1 0.0366849 0.0218066 0.0435188 1.35273e-265 -4.46452e-266 2.68131e-13 -2.07199e-268 6.83837e-269 0 0.0005 1.46608e-07 
19 1 0.0209644 0.014659 0.0121611 0.00515565 -2.33035e-05 0.00820996 5.13593e-07 3.5081e-07 8.12086e-07 0.0005 1.46608e-07 
20 1 0.028867 0.0205145 0.00746695 0.000301164 -0.0194108 -0.00705542 -1.36635e-09 -1.11068e-08 5.79106e-09 0.0005 1.46608e-07 
23 1 0.0178353 0.0243322 0.0136291 -0.000854354 0.00184945 0.00208004 5.66296e-06 1.83523e-06 -1.71093e-05 0.0005 1.46608e-07 
24 1 0.0251975 0.0217448 0.0167054 -7.26103e-06 0.000372254 -5.44514e-05 1.25389e-06 1.3958e-05 -7.58202e-06 0.0005 1.46608e-07 
25 1 0.0165735 0.0236794 0.015154 -0.00012837 -0.00314096 0.0028809 -6.3097e-06 -1.55907e-06 5.29094e-06 0.0005 1.46608e-07 
26 1 0.017374 0.0241839 0.0171763 0.0133138 -0.000993617 -0.0131287 1.55257e-07 -2.47516e-07 2.58718e-06 0.0005 1.46608e-07 
27 1 0.0185544 0.0229577 0.0135822 0.00390084 0.00163345 -0.00388308 -3.83039e-06 1.01729e-05 -1.91451e-05 0.0005 1.46608e-07 
28 1 0.0267772 0.0149588 0.0125665 0.000970175 0.00631367 0.0173408 -1.90879e-08 3.91831e-08 6.09089e-08 0.0005 1.46608e-07 
29 1 0.0182714 0.0153285 0.0152094 -0.00175922 0.000771695 0.000611668 4.89436e-08 -6.88095e-07 1.37055e-06 0.0005 1.46608e-07 
30 1 0.0183343 0.0140212 0.0130364 0.00100961 -0.00123507 0.00297954 4.93836e-07 -1.05566e-07 6.33723e-07 0.0005 1.46608e-07 
31 1 0.0198916 0.0244786 0.0135753 -3.69713e-05 -0.000403585 0.00062864 1.76675e-06 1.31281e-07 -2.12724e-06 0.0005 1.46608e-07 
32 1 0.0167557 0.0150942 0.0149178 -0.00432636 -0.000322767 -0.00256461 -3.98132e-07 4.45717e-08 3.56367e-06 0.0005 1.46608e-07 
33 1 0.0194829 0.0231764 0.0147103 -0.000275247 -0.00643572 0.00708491 -5.57297e-06 9.69785e-06 -1.36079e-06 0.0005 1.46608e-07 
34 1 0.0182527 0.0143908 0.0139618 0.000830158 0.000298048 0.00239876 -3.60553e-07 6.96115e-07 2.3193e-07 0.0005 1.46608e-07 
35 1 0.0147973 0.0212288 0.0171514 -0.00317245 0.00566525 -0.00084578 2.48069e-07 3.62209e-07 -8.27572e-07 0.0005 1.46608e-07 
36 1 0.0221366 0.0173679 0.00753306 0.000745221 -0.0150489 0.00534378 -2.19917e-11 8.71147e-09 1.58951e-08 0.0005 1.46608e-07 
37 1 0.0251237 0.0205836 0.0156251 0.00204155 0.00888953 -0.00321831 -2.06498e-06 -2.47763e-06 4.94432e-06 0.0005 1.46608e-07 
40 1 0.0215169 0.0239109 0.0134171 -0.000118853 -0.00102709 -0.000586958 8.27852e-07 1.88178e-07 -3.26436e-07 0.0005 1.46608e-07 
41 1 0.0203037 0.0226555 0.0153679 0.00186719 0.00425537 0.00658335 0 0 -1.43822e-06 0.0005 1.46608e-07 
43 1 0.0188728 0.0233761 0.0111127 0.0018673 -0.000373636 -0.00663252 -4.02447e-08 -7.69875e-08 -2.02832e-07 0.0005 1.46608e-07 
44 1 0.0186626 0.0238926 0.0142172 -0.000705768 -0.000152684 0.000746988 -2.2756e-06 -2.02233e-07 -2.18444e-05 0.0005 1.46608e-07 
45 1 0.0143817 0.0158269 0.0145625 0.00699817 -0.0069736 -0.00883317 6.59503e-08 -2.42088e-07 -2.18389e-07 0.0005 1.46608e-07 
47 1 0.0185148 0.0225517 0.0163664 0.00555917 0.00575779 -0.00665461 0 0 -1.43822e-06 0.0005 1.46608e-07 
49 1 0.0202683 0.023712 0.016285 0.00327686 0.00342714 0.00367443 -1.37885e-06 1.78254e-06 7.89523e-06 0.0005 1.46608e-07 
50 1 0.0214996 0.0240463 0.0144057 5.50612e-05 -0.000318891 7.20173e-05 1.1147e-06 1.01654e-06 -3.34753e-06 0.0005 1.46608e-07 
51 1 0.0154265 0.0228926 0.0172703 0.00182713 0.000315251 -0.0031986 -3.59224e-08 1.2077e-07 -1.16463e-06 0.0005 1.46608e-07 
52 1 0.0247492 0.0161605 0.0159072 -0.000197599 0.00649534 0.00383736 -3.16549e-08 -1.2883e-07 -7.7908e-08 0.0005 1.46608e-07 
53 1 0.0174987 0.014764 0.0154998 -0.00369631 0.00105918 -0.00105011 7.73143e-07 -7.36236e-07 2.95429e-07 0.0005 1.46608e-07 
54 1 0.0143446 0.0201795 0.0158067 0.00313132 0.00381792 0.000552807 -5.00037e-07 2.03906e-06 -5.21063e-07 0.0005 1.46608e-07 
57 1 0.0196051 0.0193773 0.00612808 -3.59001e-14 1.60915e-14 -3.28527e-13 -3.54695e-21 -3.97047e-21 2.11758e-22 0.0005 1.46608e-07 
59 1 0.0272166 0.0148045 0.0107028 0.00152769 -0.00397787 0.0145849 -4.48238e-08 5.2216e-08 3.35231e-08 0.0005 1.46608e-07 
62 1 0.020545 0.0241148 0.0142356 -0.000639172 -0.00260934 0.00170468 3.40661e-06 1.49621e-06 -2.40545e-06 0.0005 1.46608e-07 
63 1 0.016322 0.0214989 0.0161534 0.00281586 -0.00170559 0.000833557 2.27081e-06 -3.09729e-06 5.49447e-07 0.0005 1.46608e-07 
64 1 0.0243353 0.0223781 0.0161239 -7.1787e-05 0.000656913 0.000461608 -6.24162e-07 1.54558e-05 -1.00089e-05 0.0005 1.46608e-07 
65 1 0.0258049 0.0208991 0.0154113 0.000885269 0.0086181 -0.00296528 1.23314e-05 -1.30912e-05 1.13489e-05 0.0005 1.46608e-07 
67 1 0.0269912 0.0147688 0.0117383 0.00109561 -0.000246803 0.0161496 -2.01079e-09 4.94932e-09 -3.23767e-09 0.0005 1.46608e-07 
68 1 0.0275087 0.0153937 0.00918727 0.000467664 -0.0103126 0.0169538 -3.3305e-09 4.8811e-09 1.69968e-08 0.0005 1.46608e-07 
69 1 0.0211133 0.0146478 0.0145851 0.00141417 0.00324592 -0.00842656 -4.18957e-07 -4.47217e-07 -1.58656e-06 0.0005 1.46608e-07 
71 1 0.0241113 0.0155005 0.0153835 0.00145334 0.00127644 -0.000459586 -2.18074e-06 -2.32803e-08 1.96806e-06 0.0005 1.46608e-07 
73 1 0.0173057 0.0145776 0.014244 -0.00118442 0.000976039 -0.000464587 2.10712e-08 -2.44798e-07 -3.70436e-07 0.0005 1.46608e-07 
74 1 0.0206436 0.0241012 0.0131827 -0.000432259 -0.00051032 -0.000484153 1.46899e-06 1.3223e-08 3.00059e-06 0.0005 1.46608e-07 
75 1 0.0212952 0.0234032 0.0155747 0.00393776 -0.00121139 0.0115231 1.64705e-06 5.96008e-07 2.59519e-06 0.0005 1.46608e-07 
76 1 0.0208361 0.0167974 0.0153352 0.000949668 0.00880775 0.00592016 -4.2703e-08 -1.78989e-08 -7.53236e-09 0.0005 1.46608e-07 
78 1 0.0206082 0.0217607 0.0161031 0.00633416 0.00601056 -0.00163692 1.80491e-05 -4.96691e-06 9.81464e-08 0.0005 1.46608e-07 
79 1 0.0249978 0.0212175 0.0153255 0.00133999 0.00541059 -0.00237529 -9.96283e-06 2.89101e-05 1.96586e-05 0.0005 1.46608e-07 
80 1 0.0133998 0.020051 0.0161224 0.00439297 0.000400089 0.00328535 1.54073e-07 -4.19389e-07 9.0641e-07 0.0005 1.46608e-07 
83 1 0.0179928 0.0216693 0.0160944 0.00243705 0.007384 -0.00759775 -1.20383e-07 -2.01727e-08 -1.29328e-06 0.0005 1.46608e-07 
84 1 0.0193326 0.0139867 0.0129925 0.00113526 0.000529627 -0.000463327 4.38686e-08 1.27416e-07 7.18767e-07 0.0005 1.46608e-07 
85 1 0.0151373 0.0207575 0.0156115 0.00303198 0.00239039 -0.001833 3.44869e-08 -1.40537e-07 -2.43793e-07 0.0005 1.46608e-07 
86 1 0.0207493 0.0148836 0.0130969 0.00141186 0.010177 0.00866237 -1.32212e-06 1.88516e-06 4.35632e-07 0.0005 1.46608e-07 
87 1 0.0252789 0.0198433 0.0158535 0.00337641 0.011248 -0.00167597 -1.97918e-05 6.51911e-06 9.80022e-06 0.0005 1.46608e-07 
88 1 0.0278617 0.0161287 0.00832623 0.000246618 -0.0161488 0.014172 2.98184e-10 4.38212e-09 1.06167e-08 0.0005 1.46608e-07 
89 1 0.0283913 0.0185154 0.00719094 0.00209091 -0.0177941 0.00309115 -4.82684e-08 3.10004e-07 -9.64106e-09 0.0005 1.46608e-07 
90 1 0.0172154 0.0210916 0.0163434 0.00590947 0.00299038 -0.00102361 -2.66373e-07 1.56239e-06 -2.86384e-07 0.0005 1.46608e-07 
91 1 0.0230331 0.0233623 0.014389 -0.000132748 0.000221223 -0.000537348 -1.63318e-08 3.99084e-08 -2.39618e-08 0.0005 1.46608e-07 
92 1 0.0248426 0.0218646 0.014626 0.000951505 0.0148839 -0.0142521 0.00149636 -0.00401432 -0.00335503 0.0005 1.46608e-07 
93 1 0.0171452 0.0199157 0.0166742 0.00885017 0.0125997 -0.00183396 -5.55975e-07 8.85208e-07 -1.63084e-07 0.0005 1.46608e-07 
95 1 0.0181925 0.0142929 0.014955 -0.000123541 0.00141377 0.00245027 4.97341e-08 1.60958e-07 -6.73568e-08 0.0005 1.46608e-07 
97 1 0.0170079 0.0239784 0.0143555 -0.00122422 0.00688177 0.00336251 1.35768e-05 1.04269e-05 1.971e-05 0.0005 1.46608e-07 
98 1 0.0163793 0.0205642 0.0165222 0.00220975 0.0172012 -0.0061509 0 0 -1.43822e-06 0.0005 1.46608e-07 
99 1 0.0218701 0.023182 0.0147458 0.00355378 0.00073112 -0.00128421 -2.34534e-07 -2.17863e-07 -1.73842e-07 0.0005 1.46608e-07 
102 1 0.0222675 0.0236877 0.01397 -9.50655e-05 0.000947911 -0.000685441 2.98458e-07 2.744e-07 -1.14597e-06 0.0005 1.46608e-07 
103 1 0.0207732 0.0204118 0.016617 0.00824108 -0.0098751 0.0122512 -5.62597e-06 -2.16185e-06 2.12072e-06 0.0005 1.46608e-07 
104 1 0.0249077 0.0217302 0.0158933 -0.000948629 0.00160823 0.000574252 -1.11325e-06 1.90073e-06 -1.25295e-06 0.0005 1.46608e-07 
105 1 0.0201438 0.0158844 0.0158431 -0.0140837 -0.0387101 -0.0165052 0 0 -1.43822e-06 0.0005 1.46608e-07 
106 1 0.0185125 0.0237587 0.0130798 -2.39275e-06 0.00162535 -0.00108482 6.47091e-06 1.06494e-05 -1.01885e-05 0.0005 1.46608e-07 
108 1 0.0214483 0.0168437 0.00645098 -2.2436e-14 4.81343e-14 1.8528e-13 -1.2543e-18 -2.49239e-19 -9.25383e-20 0.0005 1.46608e-07 
109 1 0.0227237 0.0154508 0.0153579 -1.52286e-05 0.000361417 0.000139895 -3.50967e-07 2.25381e-07 -5.32733e-07 0.0005 1.46608e-07 
110 1 0.0164503 0.0143398 0.0136145 0.000147104 -0.000509716 0.00040271 -6.95083e-08 3.8266e-07 1.19573e-07 0.0005 1.46608e-07 
111 1 0.0157482 0.0221928 0.0157186 -0.00070946 -0.00213214 0.00345456 -2.46972e-07 -5.11785e-06 4.14167e-06 0.0005 1.46608e-07 
112 1 0.0238726 0.021393 0.0162153 -3.74264e-07 0.0221019 -0.011162 1.92828e-10 2.79455e-09 -1.93683e-08 0.0005 1.46608e-07 
113 1 0.0212987 0.0160011 0.0147484 0.00204684 6.73635e-05 0.00234244 -2.42304e-08 -1.63209e-07 -1.12884e-07 0.0005 1.46608e-07 
114 1 0.0178847 0.0225109 0.0154992 0.0124972 0.00537269 -0.00563086 -3.56619e-07 9.75668e-07 -9.64326e-07 0.0005 1.46608e-07 
116 1 0.0193304 0.0232269 0.0130308 0.0017836 0.00436281 -0.00679551 4.67612e-06 5.51349e-06 -1.39862e-05 0.0005 1.46608e-07 
117 1 0.0177081 0.0226966 0.0169478 -0.000138868 0.0387173 -0.0181469 0 0 -1.43822e-06 0.0005 1.46608e-07 
118 1 0.0178333 0.0226834 0.0183449 -0.0860021 0.00906742 -0.0850251 0 0 -1.43822e-06 0.0005 1.46608e-07 
121 1 0.0551067 0.0178697 0.00597491 9.83079e-15 1.33266e-14 1.8999e-13 2.09111e-21 4.98955e-21 0 0.0005 1.46608e-07 
122 1 0.0294657 0.022575 0.00895173 0.000107918 -0.0122092 -0.0158735 1.31114e-06 -1.49642e-06 -2.81958e-06 0.0005 1.46608e-07 
124 1 0.0186467 0.0242076 0.0166759 0.00272541 -0.0371676 -0.084693 4.53427e-08 -3.87543e-07 -8.87139e-07 0.0005 1.46608e-07 
125 1 0.0290664 0.0213471 0.00782248 0.000687271 -0.0160444 -0.00917838 -4.13738e-09 -2.12675e-08 3.28826e-09 0.0005 1.46608e-07 
126 1 0.022204 0.0230451 0.0157883 0.00463579 -0.000350099 0.00317509 -2.49248e-06 -2.46706e-06 -6.3738e-07 0.0005 1.46608e-07 
127 1 0.0203636 0.0198526 0.0158784 0.0140229 0.0113325 -0.00269667 -8.75538e-07 7.94214e-07 2.19582e-07 0.0005 1.46608e-07 
128 1 0.0303903 0.00406748 0.0435188 -9.67556e-317 -9.75879e-317 -3.22607e-12 0 0 0 0.0005 1.46608e-07 
129 1 0.0210059 0.0187074 0.0159283 -0.00402466 -0.0139829 -0.00134849 0 0 -1.43822e-06 0.0005 1.46608e-07 
130 1 0.0153853 0.0234343 0.0181104 0.00143383 -0.00151521 -0.0110336 0 0 -1.43822e-06 0.0005 1.46608e-07 
131 1 0.0157464 0.0150119 0.0133854 -0.000471767 -0.000298792 0.00319351 -1.41512e-07 2.31872e-08 1.4063e-07 0.0005 1.46608e-07 
132 1 0.0248541 0.0194837 0.0167634 -0.00385207 0.0219142 -0.00213243 -8.91908e-07 -9.70916e-07 -1.64559e-07 0.0005 1.46608e-07 
133 1 0.0201696 0.0144742 0.0143032 0.00251294 0.00296494 -0.00489041 5.13111e-07 1.51429e-07 -6.88879e-07 0.0005 1.46608e-07 
134 1 0.0246415 0.0205091 0.0165821 -0.00475645 0.0228107 -0.00667198 -4.18681e-07 -6.27979e-07 1.4485e-07 0.0005 1.46608e-07 
135 1 0.0286313 0.0193611 0.00717461 0.000913986 -0.0139281 -0.00229739 3.7152e-08 9.84628e-08 7.164e-08 0.0005 1.46608e-07 
137 1 0.0190252 0.0148781 0.0147308 0.000301842 0.0016422 -0.000158021 2.89281e-07 4.65059e-07 -6.13518e-07 0.0005 1.46608e-07 
138 1 0.0153564 0.0198192 0.0158787 0.0037371 0.00313411 -0.00162278 -7.23962e-07 1.66761e-06 2.02665e-06 0.0005 1.46608e-07 
139 1 0.0151462 0.0230835 0.0155958 -0.00108177 -0.00157471 0.000782282 -4.72388e-06 -2.0322e-06 1.89916e-06 0.0005 1.46608e-07 
141 1 0.0258134 0.0197572 0.0166946 0.000109401 0.00883804 0.00111766 -5.35879e-08 2.5686e-07 -1.36468e-06 0.0005 1.46608e-07 
142 1 0.0297859 0.0232182 0.0103768 0.000757166 -0.00624213 -0.019381 -2.78201e-08 -2.05698e-08 -7.48191e-08 0.0005 1.46608e-07 
143 1 0.0227947 0.0173222 0.0164612 5.02054e-06 0.0233433 0.00825896 -2.21311e-08 -1.51023e-07 -6.2826e-08 0.0005 1.46608e-07 
144 1 0.0196979 0.0215 0.0152544 0.00831322 -0.00998133 0.00948385 4.3859e-06 6.75917e-06 -1.30194e-05 0.0005 1.46608e-07 
145 1 0.0201381 0.0138078 0.0135574 0.00510763 0.00329724 -0.00530602 1.82765e-07 -7.59962e-08 3.13409e-07 0.0005 1.46608e-07 
146 1 0.0231571 0.0221176 0.0167063 -0.0105297 -0.0192373 -0.00780912 0 0 -1.43822e-06 0.0005 1.46608e-07 
147 1 0.0209738 0.0137413 0.0141707 -0.000549607 -0.000913414 -0.00104663 1.68722e-06 2.13769e-07 1.28975e-06 0.0005 1.46608e-07 
148 1 0.0209506 0.0215652 0.0151843 0.00776709 -0.00764406 0.00643064 -5.86899e-06 3.25691e-06 -7.34389e-06 0.0005 1.46608e-07 
149 1 0.0220124 0.014174 0.0143865 0.000334468 -0.00150496 0.0020622 -3.68136e-06 -8.5636e-07 -1.93473e-07 0.0005 1.46608e-07 
150 1 0.0230309 0.0202349 0.0074766 0.000469958 -0.0191742 -0.0102563 -1.43297e-05 -6.42197e-07 -5.38052e-07 0.0005 1.46608e-07 
151 1 0.0173088 0.0234948 0.0158121 0.011541 -0.0136562 -0.0051363 0 0 -1.43822e-06 0.0005 1.46608e-07 
152 1 0.0199661 0.0189271 0.0159463 -0.0070262 0.00569419 -0.0005427 3.72421e-07 6.84904e-07 6.76084e-08 0.0005 1.46608e-07 
153 1 0.01968 0.0234575 0.0117177 0.000453074 -0.00050872 -0.00111981 4.52443e-06 4.18093e-06 1.7595e-05 0.0005 1.46608e-07 
154 1 0.019715 0.0228276 0.0161578 -0.00448222 0.00826214 0.000665675 0 0 -1.43822e-06 0.0005 1.46608e-07 
155 1 0.0163772 0.0230907 0.0159775 0.00330639 0.00201638 -0.00331219 2.234e-06 -4.72871e-07 -1.65406e-06 0.0005 1.46608e-07 
157 1 0.0169147 0.023949 0.0133953 0.000131586 0.000121495 0.00161128 1.43316e-05 6.77078e-06 1.27149e-05 0.0005 1.46608e-07 
158 1 0.0211404 0.0225422 0.0164486 -0.00441767 0.0209968 -0.006151 -4.68014e-07 -1.95807e-06 3.03184e-06 0.0005 1.46608e-07 
160 1 0.0259134 0.0201892 0.0156682 0.00287801 0.0141652 -0.00345861 -1.85285e-06 -4.543e-05 1.91137e-05 0.0005 1.46608e-07 
161 1 0.0219591 0.0165506 0.00795086 0.000242305 -0.0166047 0.0117737 1.10919e-08 1.20325e-08 -4.86927e-09 0.0005 1.46608e-07 
163 1 0.018979 0.0227852 0.0154801 -0.0104988 -0.00768722 0.00880392 -6.02521e-06 5.78535e-07 3.24627e-06 0.0005 1.46608e-07 
164 1 0.0209288 0.0177252 0.0157403 -0.000357849 0.0100867 0.00341665 1.96088e-08 1.98548e-07 5.90678e-08 0.0005 1.46608e-07 
165 1 0.0166206 0.0237874 0.016652 0.00338502 0.00155998 -0.00329606 1.11913e-07 1.13352e-06 1.87725e-06 0.0005 1.46608e-07 
166 1 0.0178274 0.023557 0.0141632 -0.00262598 0.00364682 -0.000195321 1.7356e-06 7.80148e-06 -2.63505e-05 0.0005 1.46608e-07 
167 1 0.0126928 0.0206244 0.0165466 -0.000357672 -0.00111701 -0.000172543 7.31433e-08 9.59227e-08 -2.24454e-07 0.0005 1.46608e-07 
170 1 0.0233182 0.0221045 0.00864405 -0.000135235 -0.0128874 -0.0123798 -3.85328e-08 4.9771e-08 -1.46079e-07 0.0005 1.46608e-07 
171 1 0.0152981 0.0214883 0.0162747 0.000928553 0.007195 -0.00498677 -3.53184e-07 1.2394e-06 2.12555e-06 0.0005 1.46608e-07 
173 1 0.0238811 0.0233228 0.0108144 0.00111844 -0.0028899 -0.0141582 -6.35153e-09 3.99366e-09 3.98847e-08 0.0005 1.46608e-07 
174 1 0.015959 0.0212866 0.0170811 -0.0167395 0.0122181 0.00224156 0 0 -1.43822e-06 0.0005 1.46608e-07 
175 1 0.0214212 0.0144392 0.0136508 0.00117428 0.00176396 0.00339167 -2.94956e-06 2.29307e-06 9.58002e-07 0.0005 1.46608e-07 
177 1 0.0199588 0.015122 0.0150805 0.0192266 -0.0130685 -0.0226895 0 0 -1.43822e-06 0.0005 1.46608e-07 
179 1 0.022307 0.0157776 0.0145096 0.00144224 0.00231516 0.00105259 -4.07378e-08 -3.43423e-07 -4.48709e-07 0.0005 1.46608e-07 
183 1 0.0163582 0.0175894 0.0165306 -0.000804287 0.0168756 0.00499804 2.51998e-08 2.08192e-07 5.21325e-08 0.0005 1.46608e-07 
184 1 0.0173925 0.0141287 0.0133547 0.000108631 -0.000203939 0.000245527 3.56351e-07 -6.67838e-08 -3.95507e-08 0.0005 1.46608e-07 
185 1 0.0243931 0.0229979 0.0132718 0.00158882 0.0105291 -0.0189193 -6.32422e-08 -1.4304e-07 1.99469e-07 0.0005 1.46608e-07 
186 1 0.0234443 0.0150082 0.0148243 0.00127854 9.21558e-05 0.0020444 8.42079e-08 6.86199e-07 1.1421e-06 0.0005 1.46608e-07 
187 1 0.01879 0.0224582 0.0144178 0.0062385 -0.00162765 -0.00216554 0 0 -1.43822e-06 0.0005 1.46608e-07 
191 1 0.0251219 0.0170336 0.0163778 -0.00358653 0.00762208 0.00390883 3.12832e-08 1.16994e-07 5.2254e-08 0.0005 1.46608e-07 
192 1 0.0256153 0.0207149 0.016486 -0.00173796 0.009028 -3.98822e-06 1.82121e-07 4.02968e-07 -1.53279e-06 0.0005 1.46608e-07 
193 1 0.0215427 0.0153646 0.0140111 -0.00136061 0.0012856 0.000525126 2.65043e-08 -3.42209e-07 -7.59702e-07 0.0005 1.46608e-07 
194 1 0.0245896 0.0223103 0.0150744 0.000614394 6.99307e-05 0.00258717 0.000103081 0.000203571 8.78722e-06 0.0005 1.46608e-07 
197 1 0.021183 0.0205855 0.0157217 0.00770207 -0.0122786 0.00874513 -9.83353e-07 -1.07598e-05 1.1784e-07 0.0005 1.46608e-07 
199 1 0.0164544 0.014194 0.0146037 0.00172076 -0.00325289 -6.20596e-05 -4.60656e-07 3.74179e-07 4.44638e-07 0.0005 1.46608e-07 
200 1 0.0137579 0.0220829 0.0157489 -0.000514523 -0.000780121 -0.000146125 2.5325e-07 3.39498e-07 7.0927e-08 0.0005 1.46608e-07 
201 1 0.0213993 0.0196267 0.0159048 0.00779954 -0.0140075 0.00383508 1.8749e-06 -2.53813e-06 -1.2844e-06 0.0005 1.46608e-07 
203 1 0.0233573 0.0221939 0.0157261 9.02709e-05 0.003806 -0.004325 -5.40037e-08 1.27359e-06 -8.2897e-07 0.0005 1.46608e-07 
205 1 0.0228041 0.0212504 0.0162718 -4.96663e-09 0.0223853 -0.0105147 2.03209e-12 -7.31279e-09 -1.52049e-08 0.0005 1.46608e-07 
206 1 0.0209039 0.0153539 0.0154143 -0.0103338 -0.0270231 -0.0419764 0 0 -1.43822e-06 0.0005 1.46608e-07 
208 1 0.0238933 0.0219148 0.00845496 0.000507273 -0.014595 -0.0130128 -1.92034e-08 6.53608e-08 4.15739e-08 0.0005 1.46608e-07 
211 1 0.016092 0.0237948 0.0175007 0.00291172 -0.00113944 -0.00434084 1.11083e-07 1.84689e-07 4.39764e-06 0.0005 1.46608e-07 
214 1 0.0221639 0.0149864 0.0133147 0.000638615 0.0084204 0.0182671 -1.57344e-06 -1.2514e-07 -3.01707e-07 0.0005 1.46608e-07 
215 1 0.0236777 0.0231012 0.00997316 0.00148929 -0.00308589 -0.0113379 4.7607e-07 -1.27992e-07 4.98123e-08 0.0005 1.46608e-07 
217 1 0.0207792 0.0232813 0.0147273 0.00500621 0.000847217 0.0111281 2.16023e-06 -4.72152e-07 -6.63184e-06 0.0005 1.46608e-07 
218 1 0.0217983 0.0212238 0.0162868 -7.5004e-05 0.0240155 -0.0108146 -2.13747e-09 3.44356e-08 -4.08059e-08 0.0005 1.46608e-07 
220 1 0.0183937 0.0160923 0.0158442 -0.000602786 -0.00131856 -0.000351647 -2.71029e-08 -5.82836e-08 -1.25097e-08 0.0005 1.46608e-07 
221 1 0.0189072 0.0211539 0.0165325 0.00716643 0.00323735 0.000864345 0 0 -1.43822e-06 0.0005 1.46608e-07 
223 1 0.0174429 0.0158352 0.015656 -0.000155118 -0.00166151 -0.00153192 -1.40528e-08 -1.88571e-07 -1.17382e-07 0.0005 1.46608e-07 
224 1 0.0161448 0.023673 0.0140005 0.000152477 0.000357576 0.00171196 4.63935e-06 -5.84961e-06 7.14438e-06 0.0005 1.46608e-07 
225 1 0.0192362 0.020735 0.0156858 0.00768021 -0.00905089 0.00930238 -1.39098e-06 1.45273e-05 -4.39788e-07 0.0005 1.46608e-07 
226 1 0.0280682 0.0170507 0.00767971 0.000692315 -0.0157586 0.00805387 1.2073e-09 5.91775e-09 1.03242e-08 0.0005 1.46608e-07 
227 1 0.0139174 0.0220644 0.014762 -0.000381702 -0.0007384 -0.000129024 -8.61951e-07 7.89495e-07 -3.92039e-07 0.0005 1.46608e-07 
228 1 0.0143112 0.0212978 0.0162798 -0.00143192 -0.00278944 -0.00417607 -3.92171e-07 7.39285e-07 1.60806e-07 0.0005 1.46608e-07 
229 1 0.0259856 0.0193005 0.0158185 0.00188306 0.0107205 -0.00010312 -4.16126e-06 -2.47419e-05 3.98178e-06 0.0005 1.46608e-07 
230 1 0.0164515 0.0153633 0.0140013 0.0052651 -0.000326186 -0.00339361 2.08147e-07 -6.71081e-08 -8.61094e-08 0.0005 1.46608e-07 
231 1 0.023607 0.0229091 0.0150711 8.23374e-06 -0.000433104 -0.000603453 5.3366e-07 -2.39185e-07 2.76585e-07 0.0005 1.46608e-07 
232 1 0.0222866 0.00166856 0.0435188 2.39376e-116 1.89226e-115 -3.22607e-12 -4.55973e-120 -3.60445e-119 0 0.0005 1.46608e-07 
234 1 0.0202235 0.0208381 0.0157805 0.00794106 -0.0101847 0.0105489 5.21185e-07 5.00595e-06 9.03244e-08 0.0005 1.46608e-07 
235 1 0.0180788 0.0205939 0.0165507 0.0025238 0.00862697 -0.00304359 9.87617e-08 8.81243e-07 -5.90232e-07 0.0005 1.46608e-07 
237 1 0.0256319 0.0186638 0.015876 8.38382e-05 0.0181346 0.000804114 1.13758e-05 -4.22773e-05 -1.79518e-05 0.0005 1.46608e-07 
239 1 0.0139336 0.019222 0.0159559 0.00467432 0.00110285 0.000297866 -4.28704e-07 2.49557e-07 -2.75307e-07 0.0005 1.46608e-07 
240 1 0.0148918 0.018936 0.0159442 0.00500116 0.00127474 -0.000948403 -4.48624e-08 8.00108e-07 2.8684e-07 0.0005 1.46608e-07 
241 1 0.0223672 0.0220588 0.0158072 0.00117091 0.000244949 -0.00205181 3.18808e-06 -1.6931e-06 1.2572e-06 0.0005 1.46608e-07 
242 1 0.0155964 0.0145971 0.0142828 0.00127161 -0.00242729 0.00254984 -1.90954e-07 -1.14787e-07 5.06398e-07 0.0005 1.46608e-07 
246 1 0.0132295 0.0214278 0.0162889 -0.00055371 -0.000799225 -0.00010272 -8.04629e-08 -3.9114e-08 -1.60127e-07 0.0005 1.46608e-07 
247 1 0.0282603 0.0153853 0.00925365 0.000992249 -0.00941822 0.0168222 -1.13925e-08 -2.12927e-09 2.26877e-08 0.0005 1.46608e-07 
248 1 0.0136419 0.0208528 0.0155767 -0.000366198 -0.00175872 -0.000601854 1.74648e-06 -1.46709e-06 3.43423e-07 0.0005 1.46608e-07 
249 1 0.0167574 0.0151986 0.0160115 -0.0194312 0.0525474 -0.0661229 0 0 -1.43822e-06 0.0005 1.46608e-07 
250 1 0.0219442 0.0148844 0.0150886 0.00335998 0.00991261 -0.00977952 4.18957e-07 4.47217e-07 -1.28988e-06 0.0005 1.46608e-07 
251 1 0.0160133 0.0228941 0.0150574 -0.00110089 -0.00283249 -0.000537794 -7.37501e-06 7.12639e-06 -8.51178e-06 0.0005 1.46608e-07 
252 1 0.0156774 0.0242359 0.0187876 0.0190701 -0.0202927 -0.0591951 3.03297e-07 -2.5699e-07 -8.47629e-07 0.0005 1.46608e-07 
253 1 0.0144135 0.0229012 0.0149424 -0.000916947 -0.00037323 0.000317286 -1.36363e-06 4.55383e-07 1.25403e-07 0.0005 1.46608e-07 
254 1 0.0199003 0.0176936 0.0157322 0.000537626 0.0196415 0.00636621 -1.65126e-10 5.05406e-09 -1.2949e-08 0.0005 1.46608e-07 
255 1 0.0179593 0.0233837 0.0112744 0.00272056 -0.000238651 -0.00925698 2.14901e-07 -5.16278e-08 -3.25243e-07 0.0005 1.46608e-07 
256 1 0.0181386 0.0232728 0.010691 0.00233252 6.98647e-05 -0.00619007 6.31704e-08 -1.39596e-07 -3.56765e-07 0.0005 1.46608e-07 
257 1 0.0203065 0.0160972 0.0148268 0.0029578 0.00619208 0.00642714 7.6388e-09 -5.30608e-08 -3.54505e-08 0.0005 1.46608e-07 
258 1 0.024256 0.0228765 0.00943031 0.00170635 -0.00113737 -0.00249974 1.6095e-07 -2.23582e-07 2.40237e-08 0.0005 1.46608e-07 
260 1 0.0550995 0.0146923 0.00797706 0.674876 -0.0737942 0.0519465 0 0 -1.43822e-06 0.0005 1.46608e-07 
261 1 0.0214569 0.0224188 0.0155082 0.00353602 0.000326794 -0.00057822 1.06831e-06 9.12073e-07 -4.08908e-07 0.0005 1.46608e-07 
262 1 0.0153649 0.0205318 0.0165799 0.00239575 0.00377869 -0.00307916 5.43751e-07 3.63498e-06 3.25182e-06 0.0005 1.46608e-07 
263 1 0.0233899 0.0160876 0.015834 0.0013632 0.00529811 0.00321821 -2.32171e-08 -1.45447e-07 -8.84693e-08 0.0005 1.46608e-07 
264 1 0.0149445 0.0153078 0.0139044 -0.00184392 0.00128134 0.000257832 -8.06639e-08 -3.13896e-08 8.64861e-08 0.0005 1.46608e-07 
265 1 0.0201123 0.023759 0.0152986 -0.000300497 0.000229106 0.00529134 -6.60076e-07 1.18439e-06 -9.81108e-07 0.0005 1.46608e-07 
266 1 0.0197509 0.0222438 0.0146 0.00510928 -0.00921117 0.00953014 -2.09723e-06 9.4656e-06 -9.69743e-06 0.0005 1.46608e-07 
267 1 0.0169809 0.0220606 0.0166622 -0.0044877 0.0304579 -0.0120997 0 0 -1.43822e-06 0.0005 1.46608e-07 
268 1 0.0169071 0.0223196 0.0156256 0.00909488 0.00921795 -0.00930765 3.00187e-07 -2.91084e-06 1.2635e-06 0.0005 1.46608e-07 
269 1 0.0159091 0.0222224 0.0167064 0.00489847 -0.00131901 -0.000224266 -1.79417e-06 1.29737e-06 -1.39005e-06 0.0005 1.46608e-07 
270 1 0.0194324 0.0199118 0.0162497 0.0104976 -0.0151607 -0.00462227 0 0 -1.43822e-06 0.0005 1.46608e-07 
271 1 0.014949 0.019301 0.0169049 0.00358521 0.0169668 -0.0152673 0 0 -1.43822e-06 0.0005 1.46608e-07 
272 1 0.0226667 0.0236548 0.015145 -7.64496e-05 2.55643e-05 -0.000158888 -2.62445e-07 4.65721e-08 -7.15504e-08 0.0005 1.46608e-07 
273 1 0.0212498 0.0148621 0.0105116 0.000171781 -0.00509987 0.0206894 2.1164e-10 8.16173e-09 7.52652e-09 0.0005 1.46608e-07 
274 1 0.0181925 0.0233328 0.0121757 0.00111181 0.00263047 -0.0128359 -1.07617e-06 5.49324e-07 -2.28007e-06 0.0005 1.46608e-07 
275 1 0.0175034 0.0225774 0.00930947 9.87447e-05 -0.0115368 -0.0184618 -1.3538e-09 -1.12499e-08 2.27291e-09 0.0005 1.46608e-07 
276 1 0.014752 0.022189 0.0158043 -0.0018192 -0.00110304 0.000980951 -6.70855e-07 -1.25354e-06 2.4702e-06 0.0005 1.46608e-07 
277 1 0.0200421 0.023485 0.0136571 -0.00164204 -0.000564452 -0.00103844 -6.58289e-06 -1.73431e-09 4.08638e-06 0.0005 1.46608e-07 
278 1 0.0205012 0.0193118 0.0167156 0.0303769 -0.00395537 -0.0247883 0 0 -1.43822e-06 0.0005 1.46608e-07 
279 1 0.0189346 0.021839 0.0158041 0.00694711 -0.000235017 0.00431704 -2.04571e-06 -4.69618e-07 -5.59535e-07 0.0005 1.46608e-07 
280 1 0.0180747 0.0237251 0.0150806 -0.000832829 0.000159541 0.000227025 5.38069e-06 2.4544e-07 -9.1503e-06 0.0005 1.46608e-07 
282 1 0.0183086 0.0234672 0.0160186 -0.00265994 0.00182467 -0.0049304 0 0 -1.43822e-06 0.0005 1.46608e-07 
283 1 0.0205427 0.0153381 0.0139637 0.00278797 0.00647651 0.00813721 1.33393e-07 -3.0561e-07 -5.34364e-07 0.0005 1.46608e-07 
284 1 0.00937694 0.00505359 0.0435188 -9.68799e-317 -9.69932e-317 9.23294e-13 0 0 0 0.0005 1.46608e-07 
285 1 0.0218693 0.0166851 0.0152757 0.000275917 0.0106454 0.00762045 -1.59198e-08 -1.56667e-08 -1.05531e-08 0.0005 1.46608e-07 
286 1 0.0148189 0.0149701 0.0148371 -0.00727688 -0.00050351 -0.00115733 -1.63448e-08 -1.43036e-07 -1.42827e-07 0.0005 1.46608e-07 
288 1 0.0183365 0.0196349 0.0167435 0.00766038 0.00462446 -0.00264852 -3.08177e-07 8.39129e-07 -5.4315e-10 0.0005 1.46608e-07 
289 1 0.0143746 0.0204017 0.0167812 0.00392987 0.000421484 0.00197144 -3.95858e-08 5.81705e-07 -9.88756e-09 0.0005 1.46608e-07 
291 1 0.0234516 0.0227302 0.0092591 0.00185444 -0.00488893 -0.00908164 -6.24283e-07 2.41013e-08 -3.41355e-07 0.0005 1.46608e-07 
293 1 0.0196858 0.0218672 0.0164733 0.00511507 -0.000352857 -0.00578391 -1.89537e-05 1.79154e-06 6.6334e-06 0.0005 1.46608e-07 
294 1 0.0173308 0.0230801 0.0148915 0.0032813 -0.00272741 -0.00510153 0 0 -1.43822e-06 0.0005 1.46608e-07 
295 1 0.0227904 0.0142679 0.0149793 0.000895766 4.08463e-05 0.000532662 -2.97303e-06 -1.16203e-06 -1.22529e-06 0.0005 1.46608e-07 
296 1 0.0216852 0.0156694 0.0088429 0.00186507 -0.00987242 0.0163555 -1.09909e-08 -7.47674e-08 9.502e-08 0.0005 1.46608e-07 
298 1 0.0152459 0.0233378 0.0146418 -0.000523804 -0.00142302 9.58409e-05 -5.70835e-06 1.2554e-06 -1.16365e-06 0.0005 1.46608e-07 
299 1 0.024947 0.0190645 0.00586966 2.61006e-15 4.23196e-16 -4.25289e-14 -7.67624e-21 4.04673e-20 0 0.0005 1.46608e-07 
300 1 0.0189707 0.0237752 0.01224 0.00216599 -0.000735273 0.000540714 -4.6951e-06 5.52531e-06 6.14706e-06 0.0005 1.46608e-07 
