ITEM: TIMESTEP
28400000
ITEM: NUMBER OF ATOMS
107
ITEM: BOX BOUNDS ff ff ff
-0.02 0.43
-0.02 0.06
-0.02 0.07
ITEM: ATOMS id type x y z vx vy vz fx fy fz radius mass 
1 1 0.0210826 0.0146665 0.0123052 0.00371454 -0.000366203 0.00545152 -1.77632e-09 -6.87081e-09 1.20477e-08 0.0005 1.46608e-07 
2 1 0.0242546 0.020213 0.00583854 -9.08579e-15 -1.46378e-15 1.48131e-13 -1.32349e-23 -2.64698e-23 0 0.0005 1.46608e-07 
4 1 0.0326588 0.0184133 0.00592296 -4.08311e-15 -1.59373e-14 -3.89641e-14 4.76456e-21 4.44692e-21 -2.5411e-21 0.0005 1.46608e-07 
5 1 0.0552529 0.0189972 0.0058882 -1.32625e-17 -1.81204e-17 -2.57124e-16 2.77933e-22 3.97047e-23 0 0.0005 1.46608e-07 
15 1 0.00938048 0.0183393 0.00587271 3.64671e-15 5.31451e-16 -3.69009e-14 -3.97047e-22 -4.47008e-21 0 0.0005 1.46608e-07 
16 1 0.0260391 0.0196534 0.00594246 2.09857e-14 3.38088e-15 -3.42138e-13 0 6.61744e-24 0 0.0005 1.46608e-07 
17 1 0.0764299 0.01907 0.00579421 -1.48006e-15 8.84214e-15 3.39828e-14 -3.73555e-20 -9.52912e-22 -8.47033e-22 0.0005 1.46608e-07 
18 1 0.0366849 0.0218066 0.0435188 -9.6879e-317 9.73506e-317 2.68131e-13 0 0 0 0.0005 1.46608e-07 
20 1 0.0524579 0.0180764 0.0073012 0.00105616 -0.0179906 0.00514915 6.29627e-09 9.27775e-09 1.81323e-08 0.0005 1.46608e-07 
24 1 0.045937 0.016104 0.00843886 0.00123689 -0.00792298 0.00789594 9.25442e-06 5.97096e-06 -1.04874e-05 0.0005 1.46608e-07 
25 1 0.0342322 0.0172097 0.00627001 -2.06351e-16 -1.89163e-15 -5.62914e-15 -1.58157e-21 5.29396e-23 2.11758e-22 0.0005 1.46608e-07 
27 1 0.000591717 0.0149731 0.0435188 9.71467e-317 9.75789e-317 -8.23806e-13 0 0 0 0.0005 1.46608e-07 
28 1 0.0499371 0.0177688 0.0156097 0.00044069 0.00669348 0.00308534 -1.57914e-08 6.18127e-08 -2.93206e-08 0.0005 1.46608e-07 
32 1 0.0373572 0.0202824 0.00605833 -5.17196e-15 1.75269e-14 -8.08023e-14 1.56833e-20 2.69992e-21 -4.23516e-22 0.0005 1.46608e-07 
33 1 0.0353906 0.0218618 0.00822051 0.000762941 -0.00722005 -0.00544444 1.14172e-08 3.56717e-08 1.65365e-08 0.0005 1.46608e-07 
37 1 0.049528 0.0194806 0.00601095 5.73343e-15 -1.24901e-14 -1.29438e-13 -6.68627e-20 -2.64168e-20 -6.35275e-22 0.0005 1.46608e-07 
41 1 0.0310637 0.0215933 0.0149572 -6.11257e-05 0.019572 -0.0119997 7.95384e-10 -2.37965e-09 -1.12873e-08 0.0005 1.46608e-07 
44 1 0.0410863 0.020907 0.00758496 0.000408887 -0.0188626 -0.010414 7.39397e-09 1.14614e-08 2.13174e-08 0.0005 1.46608e-07 
47 1 0.0317238 0.0192455 0.00569325 -2.30901e-15 -6.18778e-14 2.10854e-13 -2.29956e-22 0 0 0.0005 1.46608e-07 
49 1 0.003617 0.0285782 0.0435188 -9.68849e-317 -9.75601e-317 2.88878e-12 0 0 0 0.0005 1.46608e-07 
52 1 0.0860181 0.0183082 0.00577269 -1.22906e-15 3.67083e-14 1.26768e-13 6.39775e-20 1.90582e-21 -2.11758e-22 0.0005 1.46608e-07 
57 1 0.0177449 0.0174882 0.00600758 2.62604e-15 1.02261e-14 2.12816e-14 9.79382e-22 2.43522e-21 -1.69407e-21 0.0005 1.46608e-07 
59 1 0.0506671 0.0152563 0.0135509 -9.92174e-05 0.00788925 0.0186411 -1.90157e-07 -6.26539e-07 -1.26208e-06 0.0005 1.46608e-07 
63 1 0.02862 0.0186404 0.00722606 -8.26542e-05 -0.0218689 0.00184166 8.76572e-09 1.07979e-08 -1.01693e-08 0.0005 1.46608e-07 
65 1 0.112778 0.0179068 0.0059233 8.11399e-16 3.43554e-15 1.42034e-14 1.22952e-20 4.39398e-21 -2.32934e-21 0.0005 1.46608e-07 
67 1 0.0502059 0.0169058 0.0151682 2.11481e-05 0.0195184 0.0115463 -2.82684e-08 3.38297e-08 2.47993e-08 0.0005 1.46608e-07 
68 1 0.0452523 0.0173614 0.00620617 -3.10804e-15 -1.74718e-14 -1.20236e-13 -2.79124e-20 2.24993e-21 6.35275e-22 0.0005 1.46608e-07 
73 1 0.0370167 0.0186542 0.0057303 4.15878e-16 -2.02912e-15 1.00252e-14 1.03722e-19 1.85288e-20 -1.05879e-21 0.0005 1.46608e-07 
74 1 0.0421591 0.0233853 0.0112123 0.00130775 -0.000488127 -0.0152102 1.49806e-08 9.20594e-10 5.21816e-08 0.0005 1.46608e-07 
76 1 0.0339816 0.016155 0.00827095 0.000654497 -0.0138259 0.0129884 -6.5348e-09 -1.02382e-08 2.90408e-08 0.0005 1.46608e-07 
79 1 0.0551402 0.017971 0.00596606 -2.82224e-15 -3.83409e-15 -5.46135e-14 5.29396e-23 7.94093e-23 0 0.0005 1.46608e-07 
84 1 0.0431331 0.0213354 0.015147 0.000871452 0.0152913 -0.0105139 -6.36944e-09 9.58672e-09 -1.78985e-08 0.0005 1.46608e-07 
87 1 0.0488885 0.022342 0.0143164 0.00252197 0.00651414 -0.00811483 4.85248e-08 5.4565e-08 -9.09475e-08 0.0005 1.46608e-07 
88 1 0.0482996 0.0232204 0.0122071 -0.000957192 0.00403245 -0.0199523 2.05533e-09 -1.27598e-08 -1.2461e-08 0.0005 1.46608e-07 
89 1 0.0515018 0.0150399 0.00992127 2.92326e-05 -0.00938886 0.0201934 -5.03183e-10 8.86058e-09 7.74899e-09 0.0005 1.46608e-07 
90 1 0.0419252 0.0232161 0.0103799 0.000796215 -0.00589921 -0.0180821 -6.3902e-11 -2.79349e-08 4.61241e-10 0.0005 1.46608e-07 
92 1 0.0480446 0.0233103 0.0108574 0.00139243 -0.00330356 -0.0180387 -8.19264e-09 -3.51002e-10 -1.21209e-08 0.0005 1.46608e-07 
97 1 0.0297985 0.0230362 0.00978121 0.000200498 -0.00794668 -0.0202874 -6.46406e-10 -1.2374e-08 -1.20273e-09 0.0005 1.46608e-07 
103 1 0.0464577 0.0180237 0.00607863 -3.12575e-15 -1.74652e-14 -1.20236e-13 2.97785e-22 -5.29396e-23 0 0.0005 1.46608e-07 
108 1 0.0214483 0.0168437 0.00645098 -2.41005e-14 5.07279e-14 1.84349e-13 -1.10564e-19 2.19699e-20 -1.96935e-20 0.0005 1.46608e-07 
109 1 0.0364448 0.023184 0.0127693 0.000338893 0.00674863 -0.0202418 -3.97728e-10 -8.0388e-09 -7.26295e-09 0.0005 1.46608e-07 
112 1 0.0442674 0.016679 0.015021 0.00101159 0.0165672 0.0106079 -1.20783e-08 2.68305e-08 8.80905e-09 0.0005 1.46608e-07 
121 1 0.0586827 0.0172628 0.00598816 1.03601e-14 -2.15474e-14 -2.65e-13 -3.35438e-20 -2.2539e-20 6.35275e-22 0.0005 1.46608e-07 
122 1 0.0792417 0.0194286 0.00576565 -2.85049e-16 -9.15337e-16 -3.86408e-15 -5.29396e-23 4.49986e-22 1.48231e-21 0.0005 1.46608e-07 
124 1 0.0275334 0.0150841 0.00984318 0.000161906 -0.00850429 0.0195294 -4.65392e-10 8.02287e-09 9.22016e-09 0.0005 1.46608e-07 
125 1 0.0527815 0.019476 0.00722657 1.9242e-05 -0.0193416 -0.00140426 -1.89031e-08 -1.89618e-07 1.30242e-08 0.0005 1.46608e-07 
128 1 0.0303903 0.00406748 0.0435188 -9.67556e-317 -9.75879e-317 -3.22607e-12 0 0 0 0.0005 1.46608e-07 
130 1 0.0394244 0.0149417 0.0102276 0.00354027 -0.00300602 0.0108763 -5.22557e-05 2.44296e-05 -1.29847e-05 0.0005 1.46608e-07 
131 1 0.0530894 0.0208471 0.0076145 0.00127746 -0.0170066 -0.00712625 -1.11436e-08 -2.9386e-08 -3.28938e-09 0.0005 1.46608e-07 
133 1 0.0438472 0.0171169 0.00621343 5.37021e-16 -1.54417e-15 -8.51195e-15 -4.0287e-20 -1.34996e-20 -2.11758e-22 0.0005 1.46608e-07 
135 1 0.0486074 0.0228309 0.0134541 0.000546956 0.00848248 -0.0180036 -3.49611e-09 -5.52846e-09 -1.44203e-08 0.0005 1.46608e-07 
137 1 0.0473953 0.0193073 0.0059321 4.7345e-15 -1.01813e-14 -1.05707e-13 6.57774e-21 3.57342e-21 0 0.0005 1.46608e-07 
139 1 0.0423199 0.0233236 0.0121992 0.00117143 0.0020236 -0.0155682 -1.56471e-09 -1.07487e-08 -3.23071e-08 0.0005 1.46608e-07 
141 1 0.039755 0.0155639 0.0090661 0.00015216 -0.0129313 0.0179252 1.13559e-06 -3.56848e-07 -4.24272e-08 0.0005 1.46608e-07 
142 1 0.0534639 0.0221459 0.00848687 0.00160463 -0.0117653 -0.013559 -1.18332e-08 4.74914e-07 5.42155e-07 0.0005 1.46608e-07 
143 1 0.0467429 0.0194212 0.00718358 0.00341721 0.00198366 -0.00181569 -9.41752e-06 1.62565e-05 1.99403e-06 0.0005 1.46608e-07 
147 1 0.0436237 0.019398 0.0157547 0.000225763 0.0204867 -0.00217299 -1.90134e-09 7.64695e-09 -1.0416e-08 0.0005 1.46608e-07 
149 1 0.0584376 0.0191695 0.00582359 8.03275e-15 -1.68733e-14 -2.07265e-13 4.67853e-21 7.99387e-21 -4.23516e-22 0.0005 1.46608e-07 
150 1 0.025179 0.0209825 0.0154926 0.00192921 0.00191401 -0.00172057 -2.69254e-07 1.10519e-06 -2.27399e-06 0.0005 1.46608e-07 
157 1 0.0266064 0.0154099 0.0138064 0.000420611 0.0104825 0.017025 -6.33408e-09 7.65595e-08 8.15374e-08 0.0005 1.46608e-07 
158 1 0.020084 0.0201843 0.0061153 5.51573e-15 -2.466e-15 5.04905e-14 7.78212e-21 -1.29702e-21 -4.23516e-22 0.0005 1.46608e-07 
160 1 0.0504297 0.016118 0.0146358 0.000310876 0.015276 0.0136207 -2.39177e-09 1.5133e-08 -3.05941e-10 0.0005 1.46608e-07 
161 1 0.0221348 0.00230077 0.0435188 9.74157e-317 -9.69799e-317 9.23294e-13 0 0 0 0.0005 1.46608e-07 
165 1 0.201805 0.0186174 0.00570934 -3.8561e-20 -1.21751e-21 8.61844e-22 0 0 0 0.0005 1.46608e-07 
166 1 0.0453607 0.0149452 0.0113913 -0.00142909 -0.00357903 0.0227111 -6.51603e-09 7.196e-09 7.58671e-10 0.0005 1.46608e-07 
167 1 0.0321707 0.016913 0.0152579 0.00130864 0.0131842 0.00861181 9.71429e-09 -6.2577e-08 -4.5903e-08 0.0005 1.46608e-07 
173 1 0.0830234 0.0186618 0.00583976 1.15473e-14 3.2372e-14 -1.39058e-13 2.18376e-21 -2.32934e-21 -1.27055e-21 0.0005 1.46608e-07 
174 1 0.0313215 0.0205042 0.015532 0.000487804 0.0140603 -0.00513544 -7.05972e-09 2.05152e-08 -3.05936e-08 0.0005 1.46608e-07 
179 1 0.067984 0.0193424 0.00575613 3.90932e-15 7.52334e-15 2.61625e-13 1.20471e-20 1.0257e-21 -2.11758e-22 0.0005 1.46608e-07 
185 1 0.0478054 0.0230036 0.0099425 0.000494238 -0.00779949 -0.0186893 -5.79719e-09 -1.31381e-08 -1.12948e-08 0.0005 1.46608e-07 
186 1 0.0800972 0.0199306 0.00589216 3.21039e-16 8.63244e-16 -3.6926e-15 -3.70577e-22 -3.44107e-22 1.27055e-21 0.0005 1.46608e-07 
187 1 0.044561 0.0155858 0.0140551 8.86351e-05 0.00997761 0.0158891 -3.02445e-08 -1.2913e-07 -1.67708e-07 0.0005 1.46608e-07 
191 1 0.0318518 0.0182176 0.0157109 0.00015859 0.0211023 0.00488217 -1.0581e-09 6.94238e-09 -9.57487e-09 0.0005 1.46608e-07 
193 1 0.0253288 0.0204564 0.00590683 9.29105e-15 1.49678e-15 -1.51478e-13 0 -1.03067e-21 0 0.0005 1.46608e-07 
194 1 0.043915 0.0179428 0.0156695 -0.000226283 0.021176 0.00776777 1.23074e-10 5.09943e-09 -1.01657e-08 0.0005 1.46608e-07 
197 1 0.0470919 0.0208706 0.00763832 0.000149424 -0.0191744 -0.00936812 -1.06258e-09 -9.10977e-09 7.46696e-09 0.0005 1.46608e-07 
200 1 0.0334948 0.015076 0.00997617 0.00361485 -0.00247962 0.00982877 -2.66256e-08 -3.66487e-08 6.80558e-08 0.0005 1.46608e-07 
205 1 0.0392951 0.0190642 0.00571675 2.82316e-15 -1.34728e-14 6.66378e-14 -2.33318e-19 -3.00697e-20 3.81165e-21 0.0005 1.46608e-07 
215 1 0.026935 0.0188837 0.00598981 1.43031e-14 2.30421e-15 -2.33189e-13 -3.04402e-22 -1.31356e-21 0 0.0005 1.46608e-07 
225 1 0.0357325 0.0229263 0.00964797 0.000248274 -0.00925875 -0.0185343 -1.08576e-09 -1.24662e-08 -1.56698e-09 0.0005 1.46608e-07 
226 1 0.051091 0.0148979 0.0118946 -0.00108248 -0.000651197 0.0222479 5.67988e-08 3.11348e-09 -6.69361e-08 0.0005 1.46608e-07 
227 1 0.0401304 0.0167937 0.00782458 0.000981026 -0.0113668 0.00676536 9.9165e-08 7.57847e-08 -1.47775e-07 0.0005 1.46608e-07 
229 1 0.0495281 0.019854 0.01576 0.00519604 0.00634767 -0.00222997 8.45975e-06 -3.8602e-05 1.00673e-05 0.0005 1.46608e-07 
232 1 0.0221996 0.00109062 0.0435188 9.58743e-317 9.68145e-317 4.97437e-14 0 0 0 0.0005 1.46608e-07 
237 1 0.0490323 0.021749 0.014842 0.000823 0.0082181 -0.00627991 -6.88871e-09 3.3814e-08 -2.37915e-09 0.0005 1.46608e-07 
241 1 0.0408729 0.0199856 0.00728489 0.00148409 -0.0147381 -0.0026076 -5.20863e-09 -3.7264e-08 3.11133e-09 0.0005 1.46608e-07 
242 1 0.0391225 0.0148327 0.011822 8.64755e-05 0.00104417 0.0220188 -5.40147e-10 1.13873e-08 4.53432e-09 0.0005 1.46608e-07 
247 1 0.0520307 0.0163315 0.00813939 0.000584189 -0.0150223 0.0109029 4.25579e-09 1.26618e-08 5.27444e-09 0.0005 1.46608e-07 
252 1 0.0561606 0.0173315 0.00595822 1.40319e-14 1.90624e-14 2.71525e-13 2.64698e-23 -3.97047e-23 0 0.0005 1.46608e-07 
253 1 0.0895649 0.0187731 0.00575225 -1.30805e-14 1.89938e-14 2.53774e-13 7.74506e-20 9.02355e-20 -3.17637e-21 0.0005 1.46608e-07 
256 1 0.0374874 0.0199505 0.0157162 0.00481587 0.00663693 -0.00248077 -4.9513e-05 -2.22295e-05 -3.34834e-05 0.0005 1.46608e-07 
257 1 0.036839 0.0223249 0.0141844 0.00021506 0.015849 -0.0166851 2.30078e-09 -9.10554e-09 -8.26682e-09 0.0005 1.46608e-07 
258 1 0.0475184 0.0223629 0.00872173 -0.000129253 -0.0132048 -0.0186634 3.02529e-09 -1.21441e-08 5.2067e-09 0.0005 1.46608e-07 
260 1 0.108836 0.0200055 0.00584234 7.66975e-16 -1.26104e-15 -6.9763e-15 1.32349e-22 -3.86459e-21 8.47033e-22 0.0005 1.46608e-07 
268 1 0.0307639 0.0225553 0.0139382 0.000875201 0.0128796 -0.0166305 1.00524e-08 -1.83635e-08 -7.07432e-09 0.0005 1.46608e-07 
269 1 0.041415 0.0219824 0.00832759 0.000376557 -0.0146505 -0.0125635 -3.18192e-09 -2.28268e-08 -4.39969e-09 0.0005 1.46608e-07 
270 1 0.037907 0.0179488 0.0156092 0.000130077 0.0207232 0.00561916 9.00828e-10 1.04046e-09 -8.85385e-09 0.0005 1.46608e-07 
271 1 0.042867 0.0223422 0.0142187 8.90207e-05 0.0152212 -0.0168274 -9.59838e-10 -7.42735e-09 -1.06543e-08 0.0005 1.46608e-07 
274 1 0.027889 0.015792 0.00869923 0.00100743 -0.0103895 0.011139 1.5677e-09 -4.89057e-08 7.21036e-08 0.0005 1.46608e-07 
275 1 0.0382554 0.0166695 0.0150646 0.000907797 0.0142348 0.010318 4.97177e-09 9.46984e-10 -1.36754e-08 0.0005 1.46608e-07 
277 1 0.032885 0.0149755 0.0127778 0.000217957 0.00619005 0.0203073 -2.00734e-09 1.15099e-08 2.47037e-09 0.0005 1.46608e-07 
284 1 0.00937694 0.00505359 0.0435188 -9.68799e-317 -9.69932e-317 9.23294e-13 0 0 0 0.0005 1.46608e-07 
288 1 0.0457039 0.018685 0.00600217 -6.97909e-15 -3.90029e-14 -2.68502e-13 -7.12037e-21 1.79995e-21 0 0.0005 1.46608e-07 
291 1 0.0351958 0.021149 0.00783201 0.000871348 -0.00937817 -0.00758562 1.37071e-08 7.88671e-08 3.88508e-08 0.0005 1.46608e-07 
294 1 0.0239797 0.0191467 0.00594569 -2.27372e-14 -4.66219e-14 -1.52821e-13 5.05573e-21 -8.09975e-21 1.90582e-21 0.0005 1.46608e-07 
299 1 0.0254808 0.018723 0.00589902 -2.07911e-14 -3.36529e-15 3.3879e-13 -5.2291e-20 2.28477e-19 -1.05879e-21 0.0005 1.46608e-07 
300 1 0.0457468 0.0156322 0.00915418 0.00196833 -0.00785316 0.01332 3.26553e-06 1.01322e-06 -2.73495e-06 0.0005 1.46608e-07 
