ITEM: TIMESTEP
1800000
ITEM: NUMBER OF ATOMS
290
ITEM: BOX BOUNDS ff ff ff
-0.02 0.43
-0.02 0.06
-0.02 0.07
ITEM: ATOMS id type x y z vx vy vz fx fy fz radius mass 
1 1 0.0217086 0.0235492 0.0148236 0.00192407 -0.00260391 -0.00675271 -2.06685e-06 -6.41355e-06 -1.31523e-05 0.0005 1.46608e-07 
2 1 0.0146312 0.0198635 0.0159792 0.00318745 0.00139663 -0.000964599 -1.76379e-06 2.74573e-07 -5.35625e-07 0.0005 1.46608e-07 
3 1 0.0258947 0.018305 0.0167596 -0.00016555 0.00556139 0.00353139 0 0 -1.43822e-06 0.0005 1.46608e-07 
4 1 0.0187849 0.0238537 0.0148386 0.000234821 0.000765315 -0.00219799 1.51912e-06 6.72736e-07 8.17145e-07 0.0005 1.46608e-07 
5 1 0.0238549 0.0165535 0.0161222 0.0337107 0.052921 -0.000256254 0 0 -1.43822e-06 0.0005 1.46608e-07 
6 1 0.0190899 0.0218619 0.0150212 0.00335422 0.00623124 -0.00215609 1.15404e-06 1.1315e-06 4.32847e-06 0.0005 1.46608e-07 
7 1 0.0192963 0.0210502 0.0155406 0.0027102 0.00917815 0.000283011 1.93174e-06 -4.13797e-06 3.22756e-06 0.0005 1.46608e-07 
9 1 0.0202446 0.0235949 0.0120265 -0.0126397 -0.045643 -0.0822795 3.55929e-08 -4.07761e-07 -7.3506e-07 0.0005 1.46608e-07 
10 1 0.020748 0.0153802 0.0140118 -0.00249604 0.0127276 0.0236321 5.40285e-10 -7.96069e-09 -1.4407e-06 0.0005 1.46608e-07 
11 1 0.0176041 0.0224559 0.00912631 3.5542e-05 -0.0119872 -0.0180904 -1.40413e-09 -1.05969e-08 4.24209e-09 0.0005 1.46608e-07 
12 1 0.0204457 0.0154625 0.0149935 0.0115721 0.0102195 -0.00809642 3.63335e-07 -2.04645e-08 -8.95477e-07 0.0005 1.46608e-07 
13 1 0.0169531 0.0239616 0.0134134 0.00153111 -0.000405314 -0.00314951 2.29471e-07 1.03354e-07 -1.98101e-07 0.0005 1.46608e-07 
14 1 0.0199961 0.0230538 0.0151692 0.0048964 -0.00220981 0.00342429 0 0 -1.43822e-06 0.0005 1.46608e-07 
15 1 0.0200032 0.0151639 0.00757798 -0.373666 -0.0833938 0.00468184 0 0 -1.43822e-06 0.0005 1.46608e-07 
16 1 0.0204834 0.020494 0.0169922 0.00120319 0.00973157 -0.00249751 -2.72249e-06 -1.5659e-06 -3.05509e-06 0.0005 1.46608e-07 
17 1 0.0208772 0.0243235 0.0139418 0.00102261 -0.000327012 0.000788388 -1.94086e-06 2.33092e-06 -2.33446e-06 0.0005 1.46608e-07 
18 1 0.0210738 0.0146688 0.0122721 0.00320254 -5.20761e-06 0.023984 1.21106e-05 -1.29357e-05 6.80613e-05 0.0005 1.46608e-07 
19 1 0.0184275 0.0240639 0.0128726 0.00195304 0.00015764 -0.000775123 -4.40083e-07 -4.09439e-07 -2.08356e-07 0.0005 1.46608e-07 
20 1 0.0252455 0.0205731 0.0157213 0.00469433 0.000510828 -0.000452939 1.6907e-06 -3.43081e-06 3.91785e-06 0.0005 1.46608e-07 
21 1 0.0215128 0.0150418 0.00991524 0.000769604 -0.00666163 0.0180495 -5.13554e-09 4.70448e-09 1.8154e-08 0.0005 1.46608e-07 
22 1 0.0188823 0.0165885 0.0161718 -0.00533162 0.00348357 0.00264625 6.98808e-08 1.1094e-07 -1.00502e-07 0.0005 1.46608e-07 
23 1 0.017827 0.0243368 0.0137226 0.000624598 0.000254269 0.000146085 -9.2023e-07 8.12417e-07 2.53233e-07 0.0005 1.46608e-07 
24 1 0.0250354 0.0213609 0.0155586 0.00167798 -0.00186763 -0.000733452 -1.30469e-06 1.36774e-07 -5.94418e-07 0.0005 1.46608e-07 
25 1 0.0217513 0.0151116 0.0135627 0.00642301 0.00187085 0.00183596 -6.08819e-08 -4.07858e-07 -8.3181e-07 0.0005 1.46608e-07 
26 1 0.0190019 0.0235484 0.0118219 0.000695049 5.74671e-05 -0.000291592 -7.30069e-06 -1.43906e-06 4.24326e-06 0.0005 1.46608e-07 
27 1 0.0199721 0.0179757 0.0158264 0.000583213 0.0200085 0.00477459 -4.57734e-12 3.72296e-09 -1.52253e-08 0.0005 1.46608e-07 
28 1 0.0195528 0.0169587 0.0168147 -0.00235706 -0.00343515 0.00332481 8.06988e-08 2.20032e-08 -1.17549e-06 0.0005 1.46608e-07 
29 1 0.0245056 0.0209834 0.0164194 -0.0028979 0.00372418 -0.000400873 -1.63939e-06 9.56896e-07 6.23957e-07 0.0005 1.46608e-07 
30 1 0.0197658 0.0239441 0.0146791 5.06257e-05 4.9327e-05 -0.00101361 -1.56972e-06 3.35697e-06 -1.46194e-06 0.0005 1.46608e-07 
31 1 0.0188283 0.0244328 0.0137111 0.00188164 -7.23886e-05 -0.000625586 3.1917e-06 2.00588e-06 6.76496e-07 0.0005 1.46608e-07 
32 1 0.0230344 0.0204942 0.00761286 -0.000346212 -0.019673 -0.0109825 3.54167e-09 -5.65289e-09 7.94153e-09 0.0005 1.46608e-07 
33 1 0.0223049 0.0202742 0.0175651 -0.00892844 0.000920808 0.000733821 -3.5535e-06 1.94029e-06 4.87998e-06 0.0005 1.46608e-07 
34 1 0.0195047 0.0201522 0.015879 0.0021689 0.0107248 0.00315253 9.58685e-07 -4.73329e-06 6.03691e-06 0.0005 1.46608e-07 
35 1 0.0208742 0.0147466 0.0132487 0.00178196 -0.000660436 0.0251304 -1.14463e-07 2.39945e-06 1.81822e-06 0.0005 1.46608e-07 
36 1 0.0198252 0.0244834 0.0136206 -0.000117499 7.77197e-05 -0.000381566 2.28772e-06 -5.10816e-07 7.69054e-09 0.0005 1.46608e-07 
37 1 0.0225458 0.0236158 0.0139099 0.00104304 0.000347129 0.000267992 -1.2018e-06 1.78076e-06 -3.1056e-06 0.0005 1.46608e-07 
38 1 0.0189053 0.0149144 0.0147708 0.00317952 0.00461201 0.00790685 5.7207e-07 -6.63197e-07 -8.63221e-08 0.0005 1.46608e-07 
39 1 0.0223404 0.022842 0.0151458 0.0150013 0.00885952 -0.00625143 -3.13309e-07 6.41828e-07 -1.23976e-06 0.0005 1.46608e-07 
40 1 0.0209872 0.0229384 0.0150903 0.00172613 0.00131389 -0.0013096 -5.19053e-07 -2.26312e-06 -2.16334e-06 0.0005 1.46608e-07 
41 1 0.0209326 0.0225946 0.0169209 0.0139763 0.0139006 -0.00336547 0 0 -1.43822e-06 0.0005 1.46608e-07 
42 1 0.0236431 0.0228996 0.00948728 0.00186289 -0.00371202 -0.00957066 6.00081e-09 1.55788e-08 3.22638e-08 0.0005 1.46608e-07 
43 1 0.0160196 0.0236137 0.0141059 0.0002959 5.85943e-05 0.00055942 1.49221e-07 -1.38269e-07 9.04784e-07 0.0005 1.46608e-07 
44 1 0.0200461 0.0220596 0.0166212 -0.00223733 0.00823868 0.0121729 7.43553e-07 -1.1325e-06 4.04563e-06 0.0005 1.46608e-07 
45 1 0.0226363 0.0238686 0.0147676 0.000530592 8.42722e-05 -7.88863e-05 -1.89441e-06 5.8707e-07 -1.53051e-06 0.0005 1.46608e-07 
46 1 0.0241542 0.0225502 0.0090643 0.00196186 -0.00751983 -0.0091651 -5.64028e-09 -2.9115e-08 -2.64216e-08 0.0005 1.46608e-07 
47 1 0.0214346 0.0223711 0.0157808 -0.00318263 0.000479117 -9.89481e-05 3.67758e-06 2.93719e-08 -7.55624e-07 0.0005 1.46608e-07 
48 1 0.0225612 0.0154204 0.0140622 0.00702899 0.00116145 0.0025492 -1.75552e-07 -4.05218e-07 -5.19634e-07 0.0005 1.46608e-07 
49 1 0.0207955 0.0236677 0.015802 0.000250642 0.000747301 0.00128176 3.10489e-06 -2.27073e-07 3.12851e-06 0.0005 1.46608e-07 
50 1 0.0216762 0.0238977 0.0138314 -0.00569022 -0.0169596 0.0182017 2.66782e-05 7.24138e-05 -7.37905e-05 0.0005 1.46608e-07 
51 1 0.0181067 0.0233276 0.0108375 0.00052962 -0.00267251 -0.0107222 -5.18062e-05 -4.72993e-06 -4.47013e-07 0.0005 1.46608e-07 
52 1 0.0218962 0.0158116 0.00865722 0.00069185 -0.00816864 0.0111845 5.29961e-07 1.01156e-05 -4.46174e-06 0.0005 1.46608e-07 
53 1 0.0236753 0.0230952 0.0155293 -0.00125675 0.00111381 -0.000598512 4.49415e-07 -3.79033e-07 4.25451e-07 0.0005 1.46608e-07 
54 1 0.0195756 0.023166 0.0163282 0.00588622 0.00580953 -0.00331833 7.84327e-07 -1.69247e-07 -7.76292e-07 0.0005 1.46608e-07 
56 1 0.0222091 0.0179577 0.0167535 -0.00260641 0.000396575 0.00694609 9.94876e-07 -2.11269e-06 7.21702e-06 0.0005 1.46608e-07 
57 1 0.0180146 0.0235324 0.0142859 0.00342194 -7.50998e-05 -0.00154638 4.54489e-07 1.51665e-06 -1.35045e-07 0.0005 1.46608e-07 
58 1 0.02019 0.0170588 0.0154804 -2.98183e-05 0.020566 0.0101472 -1.59697e-06 -1.76064e-06 -1.71806e-06 0.0005 1.46608e-07 
59 1 0.0234525 0.0222872 0.00878633 0.00143321 -0.0108327 -0.011325 -6.42557e-10 -1.58018e-08 -3.08687e-09 0.0005 1.46608e-07 
60 1 0.0197055 0.0191848 0.0159771 0.00175452 0.011243 0.00404478 1.30225e-06 -9.03973e-06 2.1174e-06 0.0005 1.46608e-07 
61 1 0.0199034 0.0243074 0.0166003 1.77817e-05 -0.00158921 -0.00715441 -9.2449e-08 5.87781e-06 7.61364e-06 0.0005 1.46608e-07 
62 1 0.0202404 0.0236245 0.0138857 0.000607517 0.0010217 -0.00200702 2.01014e-06 -4.73573e-06 1.05194e-05 0.0005 1.46608e-07 
63 1 0.0243378 0.02249 0.0159703 -0.00105098 0.00183787 -0.000524268 -1.25691e-06 -2.42482e-06 4.45987e-07 0.0005 1.46608e-07 
64 1 0.022134 0.0157343 0.0159768 0.0654762 0.0487875 0.0621167 0 0 -1.43822e-06 0.0005 1.46608e-07 
65 1 0.0218908 0.0147232 0.0150327 0.00447443 0.0256976 0.0671114 0 0 -1.43822e-06 0.0005 1.46608e-07 
66 1 0.0238475 0.0152893 0.0151809 0.000100687 0.0017992 -0.000901235 4.98726e-09 -3.73365e-07 -3.39402e-07 0.0005 1.46608e-07 
67 1 0.0216423 0.0191491 0.0159418 0.000924725 0.0191847 -2.31114e-05 2.05197e-07 1.68673e-06 9.45969e-07 0.0005 1.46608e-07 
68 1 0.0232092 0.0174369 0.0164749 -0.00364865 -0.00418918 -0.00061263 5.51596e-08 4.04156e-07 1.4951e-07 0.0005 1.46608e-07 
69 1 0.0254788 0.0174205 0.0165477 0.000364924 0.0051328 0.000543447 5.67811e-07 5.65257e-07 -4.21121e-07 0.0005 1.46608e-07 
70 1 0.0251379 0.0217515 0.0165197 -0.00191088 0.00336678 -0.000149422 4.16123e-07 -5.51716e-08 3.94268e-07 0.0005 1.46608e-07 
71 1 0.0193172 0.0233051 0.0125484 0.00370848 0.00175773 -0.00440645 2.99871e-06 2.73619e-07 3.02065e-06 0.0005 1.46608e-07 
72 1 0.0247676 0.0177104 0.017384 -0.00531547 0.00161523 -0.0181861 0 0 -1.43822e-06 0.0005 1.46608e-07 
73 1 0.0232327 0.0231605 0.0184915 0.000247058 -0.0205682 -0.0215105 0 0 -1.43822e-06 0.0005 1.46608e-07 
74 1 0.0194589 0.0241091 0.012841 0.000868035 0.000271244 -0.00128441 9.97548e-07 -5.70785e-08 9.0296e-07 0.0005 1.46608e-07 
75 1 0.0209369 0.0182408 0.015871 0.0015001 0.015421 0.0031624 -1.49175e-07 3.35048e-07 4.17175e-08 0.0005 1.46608e-07 
76 1 0.0181806 0.0233369 0.0114134 0.000958426 0.00280221 -0.0150931 1.98773e-05 -6.45135e-06 -3.28681e-05 0.0005 1.46608e-07 
78 1 0.0207445 0.0227642 0.0140863 -0.000451996 0.0166655 -0.0185419 -9.3713e-08 -1.16109e-08 -1.36085e-06 0.0005 1.46608e-07 
79 1 0.0211209 0.01523 0.015865 0.00713386 0.0717029 0.0433797 0 0 -1.43822e-06 0.0005 1.46608e-07 
80 1 0.0152432 0.0207538 0.0156143 -0.000495704 0.00274779 0.00054026 2.33e-08 1.76098e-07 -1.32508e-06 0.0005 1.46608e-07 
81 1 0.0166404 0.0148352 0.0146038 -0.00186322 -0.00136183 -0.000939253 2.97431e-07 3.0853e-07 1.63736e-06 0.0005 1.46608e-07 
82 1 0.0162992 0.0235425 0.0150632 0.000645205 0.000305545 -0.000488734 -5.7888e-07 -3.88311e-07 3.19289e-06 0.0005 1.46608e-07 
83 1 0.0217202 0.0233145 0.0159482 -0.00153922 0.000337107 -0.000255052 -1.15675e-06 2.76795e-06 2.92302e-07 0.0005 1.46608e-07 
84 1 0.0187573 0.0140078 0.012957 -0.000550188 -0.000758773 0.00121132 8.85205e-08 -7.82302e-09 -5.90071e-07 0.0005 1.46608e-07 
85 1 0.0196887 0.0230635 0.0133784 0.00262992 0.000194213 -0.00258651 8.32066e-07 -3.33036e-06 6.15397e-06 0.0005 1.46608e-07 
86 1 0.0211441 0.0209087 0.0163557 -0.00256394 0.0158356 -0.000496689 2.52065e-06 -2.09391e-05 5.78992e-07 0.0005 1.46608e-07 
87 1 0.0188879 0.0225587 0.0143548 0.00355775 0.00380431 -0.00324629 1.15429e-06 4.35782e-06 3.19013e-06 0.0005 1.46608e-07 
88 1 0.0222845 0.0161438 0.0148592 -0.00329679 0.0063672 0.0012888 5.03097e-07 -2.85442e-06 1.31447e-05 0.0005 1.46608e-07 
89 1 0.0238916 0.023195 0.0102321 0.00123454 -0.00511823 -0.0166587 5.46866e-09 -1.67773e-09 2.14615e-08 0.0005 1.46608e-07 
90 1 0.0153138 0.0151664 0.0136674 -2.91796e-05 0.000553606 -0.000601763 4.00948e-07 1.5061e-07 3.19085e-08 0.0005 1.46608e-07 
91 1 0.0189956 0.0234521 0.0139624 0.00252643 0.00266253 -0.00387435 -1.89527e-07 3.91039e-06 3.37216e-07 0.0005 1.46608e-07 
92 1 0.0169235 0.0147876 0.0163536 -0.000756731 0.000336741 0.000413887 -9.75851e-08 2.52588e-07 -1.97314e-07 0.0005 1.46608e-07 
93 1 0.0191352 0.023756 0.0170204 -0.00695743 -0.00403361 -0.00908033 3.48177e-07 -7.76346e-07 2.40913e-07 0.0005 1.46608e-07 
95 1 0.0207515 0.0238525 0.0148098 -0.00073985 0.000503026 0.000182669 5.9668e-06 -2.68819e-07 -1.95767e-06 0.0005 1.46608e-07 
96 1 0.0200472 0.0215605 0.0151709 0.00231807 0.00546505 -0.00259246 6.24924e-06 -6.23121e-06 5.96539e-06 0.0005 1.46608e-07 
97 1 0.0168496 0.0240787 0.0144064 -2.28235e-05 0.000630153 -0.000386026 4.95339e-07 -1.25506e-08 5.77291e-07 0.0005 1.46608e-07 
98 1 0.0147757 0.0223909 0.0175844 0.000358692 0.000107111 -2.61676e-05 1.09679e-07 -3.79013e-07 -8.21439e-07 0.0005 1.46608e-07 
99 1 0.0233645 0.0193637 0.0167439 -0.00786047 -0.000651131 0.00228493 -8.06918e-06 4.22156e-06 -2.47749e-06 0.0005 1.46608e-07 
100 1 0.0214321 0.0201223 0.0158094 0.00101882 0.0203 -0.00500762 6.50934e-07 -2.20685e-06 2.23177e-06 0.0005 1.46608e-07 
101 1 0.0209433 0.0194016 0.0169411 -0.00199622 0.00519058 -0.0045654 -1.46308e-06 -2.76497e-07 -1.54004e-06 0.0005 1.46608e-07 
102 1 0.0232318 0.0232044 0.0146399 0.000119973 0.000110146 -4.84838e-05 -8.10425e-07 2.66043e-07 -6.97529e-07 0.0005 1.46608e-07 
103 1 0.014221 0.0224307 0.0143832 0.0110017 0.00378659 -0.00434053 -1.06114e-05 -1.69216e-06 -1.41253e-06 0.0005 1.46608e-07 
104 1 0.0197557 0.0139792 0.0130051 -0.000568489 -0.000963871 0.00177932 -5.40342e-07 -3.92725e-08 7.11809e-08 0.0005 1.46608e-07 
105 1 0.019875 0.0223904 0.0144306 0.000260892 0.00967366 -0.0100485 0 0 -1.43822e-06 0.0005 1.46608e-07 
106 1 0.0189932 0.0231411 0.0155156 0.00635223 -0.000626119 -0.00345694 2.39424e-07 8.40075e-07 -1.3743e-06 0.0005 1.46608e-07 
107 1 0.0239116 0.0214978 0.0170626 -0.0024761 -0.000199497 -0.00204594 -1.29208e-07 1.11278e-07 -1.05821e-06 0.0005 1.46608e-07 
108 1 0.0247567 0.021961 0.0151502 -0.00131081 -0.00745969 0.0054651 -4.07313e-07 -8.74162e-07 5.7554e-07 0.0005 1.46608e-07 
109 1 0.0221372 0.0168728 0.00777281 0.000618699 -0.0171102 0.0102215 -3.87567e-09 -4.76933e-09 1.48219e-08 0.0005 1.46608e-07 
110 1 0.0185719 0.0231628 0.0131177 0.00402622 0.00155696 -0.0033572 7.53571e-07 2.87089e-07 8.28301e-07 0.0005 1.46608e-07 
111 1 0.0177955 0.0140821 0.01322 -0.000711619 0.000227755 -0.000279609 9.78179e-07 -1.03098e-07 -1.83194e-07 0.0005 1.46608e-07 
112 1 0.0158114 0.022186 0.0157041 0.00199584 0.000916096 0.00101992 -2.46924e-06 1.95846e-06 -1.95655e-06 0.0005 1.46608e-07 
113 1 0.0181785 0.0237855 0.0119816 0.000532529 -0.00295719 0.000755182 3.73333e-06 -8.08044e-06 -6.01581e-06 0.0005 1.46608e-07 
114 1 0.0173066 0.0242744 0.0175018 -0.00716673 -0.00211617 -0.001197 1.80876e-07 1.83153e-07 -2.19142e-07 0.0005 1.46608e-07 
115 1 0.0152213 0.0232846 0.0146093 0.00189066 -0.000721211 0.00230603 -2.60938e-06 5.83297e-06 1.47644e-06 0.0005 1.46608e-07 
116 1 0.0181574 0.0141681 0.0146178 0.000213516 0.00169721 -0.00116471 3.18738e-07 1.84905e-08 6.09271e-07 0.0005 1.46608e-07 
117 1 0.015159 0.0161375 0.014854 0.00506186 0.00710282 0.00612412 -2.39498e-07 -2.55687e-07 -2.28147e-07 0.0005 1.46608e-07 
118 1 0.0173734 0.014432 0.0140561 -0.00123021 4.58716e-05 -0.000531058 1.10659e-06 -3.75901e-07 -1.96552e-06 0.0005 1.46608e-07 
120 1 0.0233379 0.0215611 0.00824063 0.000561211 -0.00994409 -0.00869354 5.78696e-10 6.73525e-09 7.83584e-10 0.0005 1.46608e-07 
121 1 0.0208889 0.014558 0.0149113 -0.0254057 0.0246059 0.068049 0 0 -1.43822e-06 0.0005 1.46608e-07 
122 1 0.0257479 0.0188499 0.0159333 0.00153221 0.00791138 -0.000356405 1.16795e-06 -3.38189e-06 -1.65222e-06 0.0005 1.46608e-07 
123 1 0.0185331 0.0222787 0.0157439 0.00514932 -0.00248719 -0.00758234 0 0 -1.43822e-06 0.0005 1.46608e-07 
124 1 0.0229559 0.0148645 0.0148412 -0.00732516 0.0044587 -0.0122722 0 0 -1.43822e-06 0.0005 1.46608e-07 
125 1 0.0255315 0.0197831 0.0158583 0.00556491 0.00336092 0.00139517 2.18717e-06 -9.84435e-06 1.62233e-06 0.0005 1.46608e-07 
126 1 0.0176437 0.0222253 0.016641 -0.000469959 0.00222522 0.00343756 -1.2979e-06 -6.94149e-07 7.85972e-07 0.0005 1.46608e-07 
127 1 0.0240953 0.0185464 0.0167364 -0.00954405 0.00330611 -0.000959208 1.37822e-05 1.55504e-06 -5.92936e-06 0.0005 1.46608e-07 
128 1 0.0238299 0.0216356 0.0160755 -0.0037964 0.00333862 -0.000387254 -2.27703e-06 -4.61578e-06 3.12484e-06 0.0005 1.46608e-07 
129 1 0.0197648 0.0142407 0.0163815 0.00217536 0.00691162 -0.00227205 0 0 -1.43822e-06 0.0005 1.46608e-07 
130 1 0.0176297 0.0174452 0.0164967 -0.000254262 0.0234434 0.00745621 -5.47277e-08 5.76329e-09 -1.06238e-07 0.0005 1.46608e-07 
131 1 0.0168607 0.0189361 0.0167538 0.00547111 0.00445988 -0.000931374 -2.23711e-07 7.8186e-07 1.38335e-07 0.0005 1.46608e-07 
132 1 0.0148099 0.0178868 0.0157936 0.00244656 0.000718474 -0.000794382 -1.01617e-07 3.68934e-07 1.34674e-07 0.0005 1.46608e-07 
133 1 0.0248613 0.016704 0.0162234 -0.00248346 0.0068807 0.00339225 -4.58549e-07 -4.28581e-07 -6.10081e-07 0.0005 1.46608e-07 
134 1 0.0243529 0.0195125 0.0167565 -0.00852507 0.00323019 0.00171543 -7.41155e-07 2.19176e-06 -1.87415e-06 0.0005 1.46608e-07 
135 1 0.0257677 0.0208876 0.0154291 0.00204043 0.00112245 -0.00188407 -4.69034e-06 7.11022e-06 -4.54295e-06 0.0005 1.46608e-07 
136 1 0.0231417 0.0222624 0.0156669 -0.00639294 0.00413864 -0.00146208 -5.63444e-07 3.56407e-07 6.30923e-08 0.0005 1.46608e-07 
137 1 0.0171255 0.0199112 0.0166728 0.00324564 0.000895631 -0.000373891 4.38449e-07 -1.90148e-06 2.16461e-07 0.0005 1.46608e-07 
138 1 0.01812 0.0142633 0.0156249 -0.00907671 0.0108728 -0.00486138 0 0 -1.43822e-06 0.0005 1.46608e-07 
139 1 0.0134651 0.0203784 0.0162018 0.00487516 0.00167521 -0.00284748 5.64019e-08 3.8039e-07 -1.26653e-06 0.0005 1.46608e-07 
141 1 0.0257077 0.0204392 0.0165978 0.000253056 -0.00076985 0.00238444 1.59019e-07 1.3302e-07 -1.72854e-06 0.0005 1.46608e-07 
142 1 0.0261245 0.0202767 0.015656 0.00495822 0.000535273 0.00132289 -4.5049e-06 -2.40385e-06 2.11168e-06 0.0005 1.46608e-07 
143 1 0.0186484 0.0179994 0.0166501 1.11113e-10 0.0242546 0.00485892 7.26705e-16 3.24029e-09 -1.65551e-08 0.0005 1.46608e-07 
144 1 0.0181069 0.019636 0.0167283 0.00357328 0.00261006 0.00229633 1.41989e-06 -4.54586e-06 2.5227e-06 0.0005 1.46608e-07 
145 1 0.01663 0.0226328 0.0153435 0.0036624 0.000509361 -3.09612e-06 -1.12821e-06 1.19785e-06 -8.3489e-07 0.0005 1.46608e-07 
146 1 0.0166674 0.0147513 0.0126213 0.0142985 -0.00345594 -0.0131288 0 0 -1.43822e-06 0.0005 1.46608e-07 
147 1 0.0190698 0.014575 0.0157226 -0.0181505 0.0221484 0.0186189 0 0 -1.43822e-06 0.0005 1.46608e-07 
148 1 0.0151741 0.0197692 0.0168136 0.00182706 0.000219943 -1.3118e-06 -1.84661e-07 -4.54784e-07 -2.04213e-07 0.0005 1.46608e-07 
149 1 0.0226818 0.0200888 0.0166578 -0.00654291 0.000684503 0.00267413 -5.12134e-06 4.02153e-06 -6.51446e-06 0.0005 1.46608e-07 
150 1 0.0221147 0.016994 0.0154438 -0.000114914 0.0178431 0.00896698 -1.52077e-06 7.81224e-07 1.63895e-06 0.0005 1.46608e-07 
151 1 0.0204466 0.0227595 0.0160306 -0.00315708 0.00397 0.00692405 2.17982e-06 -1.00483e-06 2.3538e-06 0.0005 1.46608e-07 
152 1 0.0146947 0.0215173 0.0152737 0.0039335 -0.000283447 -0.00751403 5.41156e-07 -7.79355e-06 5.90053e-06 0.0005 1.46608e-07 
153 1 0.0171853 0.0231975 0.0147331 0.00156515 0.00198126 -0.00158171 4.32886e-07 -1.29938e-07 3.278e-07 0.0005 1.46608e-07 
154 1 0.0234768 0.0207805 0.0164546 -0.00236832 0.0044452 0.003546 1.02005e-07 -5.5427e-06 -2.19031e-06 0.0005 1.46608e-07 
155 1 0.0155251 0.0231316 0.01555 0.0133424 0.00401329 -0.00435635 -1.48222e-07 1.35178e-07 -1.42662e-06 0.0005 1.46608e-07 
156 1 0.019981 0.0196468 0.0168202 -0.00176841 0.00960435 0.00130581 -2.81979e-06 -1.36291e-06 -2.20905e-06 0.0005 1.46608e-07 
157 1 0.014903 0.0224818 0.0151123 0.00525491 -0.00202632 -6.46871e-05 -6.06107e-06 -1.10691e-06 1.35566e-06 0.0005 1.46608e-07 
158 1 0.0169488 0.0235093 0.0158226 0.00123039 -0.0045813 -0.00140642 1.24824e-06 1.38534e-07 1.19161e-07 0.0005 1.46608e-07 
159 1 0.0165001 0.0203318 0.017356 0.00669755 1.53572e-05 0.000134792 -4.76297e-07 -2.10759e-06 1.48196e-06 0.0005 1.46608e-07 
160 1 0.0175388 0.0223343 0.0156348 0.00411207 0.0013144 0.00188916 9.34886e-08 1.28021e-06 -9.25485e-07 0.0005 1.46608e-07 
161 1 0.0151951 0.0147567 0.0145717 0.000217676 0.000160703 -0.000655571 4.41268e-08 -2.67944e-07 1.13576e-07 0.0005 1.46608e-07 
162 1 0.0210388 0.0211871 0.0154009 0.00530281 0.0160769 -0.00796076 -3.77741e-07 7.64202e-07 -7.81412e-07 0.0005 1.46608e-07 
163 1 0.0181798 0.021481 0.0162438 0.0013689 0.00379575 0.00435859 -1.27835e-06 7.19226e-07 -4.97265e-07 0.0005 1.46608e-07 
164 1 0.0166958 0.0222877 0.0163303 0.00104498 0.00144955 0.000651672 -1.67088e-06 -1.8269e-06 1.24864e-06 0.0005 1.46608e-07 
165 1 0.0178481 0.0186697 0.0167354 -0.000831278 0.0117434 0.00121816 -1.70794e-09 7.92266e-07 4.00144e-08 0.0005 1.46608e-07 
166 1 0.0217503 0.0209991 0.0171559 -0.00243383 0.00485303 -0.000775075 2.78239e-06 -9.81847e-07 -1.17992e-07 0.0005 1.46608e-07 
167 1 0.0258782 0.0193731 0.0167803 -0.000853201 0.00535348 -0.00110362 -4.02048e-07 -3.17137e-07 -1.15744e-06 0.0005 1.46608e-07 
168 1 0.0218934 0.0179103 0.0158064 -0.00139091 0.0149726 0.00440114 5.59823e-06 2.93094e-06 -1.11896e-06 0.0005 1.46608e-07 
169 1 0.0136596 0.0194369 0.0159267 0.00523521 0.000688382 -0.00214284 -3.37053e-07 5.79549e-07 -1.14098e-06 0.0005 1.46608e-07 
170 1 0.0143037 0.0165982 0.0152155 0.00401795 0.00248944 0.00311201 -3.26791e-09 8.72218e-09 1.87672e-08 0.0005 1.46608e-07 
171 1 0.018115 0.0229372 0.0150832 0.00460693 -0.000431405 -0.000733441 -5.92488e-07 1.51887e-06 -1.93518e-06 0.0005 1.46608e-07 
173 1 0.0160458 0.0155478 0.0142319 -0.00113176 0.000707297 0.000809164 -1.24562e-06 6.21564e-07 -2.70238e-06 0.0005 1.46608e-07 
174 1 0.0137675 0.0217878 0.0149998 0.00859887 0.00438595 -0.0036726 -3.49463e-06 -2.09817e-06 -4.22332e-06 0.0005 1.46608e-07 
175 1 0.0142269 0.0207124 0.0156397 0.00486648 0.00243662 -0.00192343 -7.18046e-07 2.16165e-06 -1.41267e-06 0.0005 1.46608e-07 
176 1 0.0154368 0.0225287 0.0167447 -0.000118684 -0.000158706 -0.00110303 2.37361e-06 -4.4655e-07 2.79263e-06 0.0005 1.46608e-07 
177 1 0.0189003 0.0224246 0.0167706 -0.00281866 0.00580107 0.00795443 -3.04762e-06 1.86002e-06 5.35614e-07 0.0005 1.46608e-07 
178 1 0.0178756 0.016144 0.0158788 -0.00697515 0.00238049 -0.00113331 2.82384e-07 -3.71902e-07 1.1581e-06 0.0005 1.46608e-07 
179 1 0.0187908 0.013808 0.013933 8.47823e-06 -0.00029334 0.000388088 -1.72016e-07 -1.58994e-07 -2.552e-07 0.0005 1.46608e-07 
180 1 0.0195539 0.0144895 0.0141391 0.0001197 0.00192037 0.00628782 -4.83568e-08 -3.9571e-07 -5.84071e-07 0.0005 1.46608e-07 
181 1 0.0212431 0.0160521 0.0147781 -2.62651e-05 0.00439482 0.00419367 -7.62454e-10 -2.40248e-07 -2.04993e-07 0.0005 1.46608e-07 
182 1 0.0179229 0.0237002 0.0157015 0.000337943 0.000442135 0.000622926 -1.12004e-06 -2.34923e-07 -1.14584e-07 0.0005 1.46608e-07 
183 1 0.0215944 0.0186588 0.0171694 0.00360879 0.000930528 0.017749 1.76338e-06 2.55511e-06 2.99894e-06 0.0005 1.46608e-07 
184 1 0.0138648 0.0184585 0.0159032 0.00524636 0.000320075 0.000236249 -3.00799e-08 -2.80607e-08 5.16254e-08 0.0005 1.46608e-07 
185 1 0.0169 0.0163842 0.0160136 -0.00105951 -0.00257045 -0.00123082 -4.14406e-09 -6.54235e-08 -8.95304e-09 0.0005 1.46608e-07 
186 1 0.0204413 0.0172175 0.0164349 0.00341941 7.79935e-05 0.0149318 -3.92546e-07 -2.40712e-06 1.68484e-06 0.0005 1.46608e-07 
187 1 0.0190653 0.0189232 0.0167895 -9.14462e-10 0.0249076 0.000711313 1.17111e-14 5.7828e-10 -1.69985e-08 0.0005 1.46608e-07 
188 1 0.0227769 0.0157974 0.017211 0.101721 0.105508 0.140352 0 0 -1.43822e-06 0.0005 1.46608e-07 
189 1 0.0202465 0.0151041 0.0172804 -0.0928364 0.0233914 0.164579 0 0 -1.43822e-06 0.0005 1.46608e-07 
190 1 0.0177927 0.0151585 0.0160267 -0.0011057 0.00236711 0.0024739 -1.52297e-07 -2.22913e-08 -6.78279e-07 0.0005 1.46608e-07 
191 1 0.0223499 0.0191488 0.0167351 -0.00506796 -3.74799e-05 0.00219683 7.79936e-07 2.10634e-06 -2.24427e-06 0.0005 1.46608e-07 
192 1 0.0162871 0.0155068 0.0160731 0.00222946 0.00221419 -0.00213939 2.27912e-06 -4.00946e-06 1.00446e-05 0.0005 1.46608e-07 
193 1 0.0171828 0.0214254 0.0161953 0.00189581 0.00174807 0.000935642 7.01029e-07 -2.25969e-06 1.90498e-06 0.0005 1.46608e-07 
194 1 0.0170405 0.0154429 0.0152984 -0.00647576 -0.00196041 0.000197611 1.25983e-07 -2.25577e-07 -1.68385e-07 0.0005 1.46608e-07 
196 1 0.0200315 0.0211028 0.0163324 -0.000329679 0.00879877 0.00795165 -5.86685e-07 -2.09774e-06 3.85001e-06 0.0005 1.46608e-07 
197 1 0.0214833 0.0218138 0.0166108 0.00591283 0.00484205 0.00372834 -2.40058e-06 2.17539e-05 -3.26916e-06 0.0005 1.46608e-07 
199 1 0.0188802 0.0205097 0.01659 -0.00303435 0.00519247 -0.0036854 1.70238e-07 2.96747e-06 1.82209e-06 0.0005 1.46608e-07 
200 1 0.0230607 0.0219479 0.0166329 -0.0010973 0.00372977 0.00050827 -2.1264e-06 1.36232e-06 -1.2545e-06 0.0005 1.46608e-07 
201 1 0.0231386 0.0156847 0.0158635 0.0552371 -0.0030649 0.0112613 0 0 -1.43822e-06 0.0005 1.46608e-07 
202 1 0.0222799 0.0218896 0.01601 -0.00468475 -0.00111615 -0.00168051 3.92091e-06 -1.37272e-07 6.72952e-07 0.0005 1.46608e-07 
203 1 0.0204721 0.0203485 0.0158476 0.00102802 0.0143283 0.000953654 2.89902e-07 -3.05207e-06 1.58961e-06 0.0005 1.46608e-07 
204 1 0.0206838 0.0214663 0.0171122 0.00713178 0.00887311 0.00135498 3.02224e-07 -1.8854e-06 1.38227e-06 0.0005 1.46608e-07 
205 1 0.0161898 0.0146056 0.0134949 0.00962907 0.00703952 -0.0247022 2.06236e-07 3.41605e-07 -8.58343e-07 0.0005 1.46608e-07 
206 1 0.0164716 0.0207743 0.0164598 0.00237471 0.000635065 -8.8983e-05 7.96109e-07 -1.66106e-06 8.44262e-07 0.0005 1.46608e-07 
208 1 0.0237762 0.0161172 0.0176509 0.126176 0.0913993 0.126 -7.01286e-07 1.21173e-07 -1.40669e-06 0.0005 1.46608e-07 
209 1 0.0225214 0.0210664 0.0165229 -0.00431013 0.00137226 0.00053227 -2.41028e-06 1.6411e-06 1.16822e-06 0.0005 1.46608e-07 
210 1 0.0145984 0.0155633 0.0142544 0.00307872 0.00564636 0.00687683 1.32191e-07 -2.39153e-07 -3.16255e-07 0.0005 1.46608e-07 
211 1 0.0206786 0.0193803 0.0159752 -0.000150397 0.0128948 0.00378155 -7.0562e-07 -5.88747e-06 4.75554e-06 0.0005 1.46608e-07 
212 1 0.0189 0.0239673 0.0160718 -0.00108542 -0.00425699 -0.0102058 2.22054e-08 -7.49314e-07 -9.42482e-07 0.0005 1.46608e-07 
213 1 0.0208486 0.0220085 0.0148266 0.00243232 0.00272607 -0.0030957 2.92285e-06 -2.08529e-06 1.94042e-06 0.0005 1.46608e-07 
214 1 0.0216881 0.0200473 0.0167735 -0.000505963 0.00719108 -0.00356894 1.46308e-06 2.76497e-07 -1.3364e-06 0.0005 1.46608e-07 
215 1 0.0245411 0.0158935 0.0157008 0.00428049 0.0092059 0.00687344 -1.20236e-07 -1.82919e-07 -1.33986e-07 0.0005 1.46608e-07 
216 1 0.0202929 0.0137288 0.0138104 0.000526126 -0.000493589 0.00110336 -6.94207e-08 1.5853e-07 -2.28963e-08 0.0005 1.46608e-07 
217 1 0.0161699 0.0231315 0.0164299 0.000204951 0.00054036 0.00015565 -1.65131e-07 -6.90957e-08 7.05882e-07 0.0005 1.46608e-07 
218 1 0.0181967 0.023015 0.0163761 -0.00127084 0.00306771 0.00355004 -2.32461e-06 1.23045e-06 1.82672e-07 0.0005 1.46608e-07 
219 1 0.0231069 0.0183973 0.0167541 -0.00421235 -0.00258927 -0.00196316 2.37105e-06 1.22834e-05 1.79798e-05 0.0005 1.46608e-07 
220 1 0.0225483 0.0228328 0.0162346 -0.00399121 0.00495993 0.00120377 2.2275e-06 -2.44272e-06 -2.33589e-06 0.0005 1.46608e-07 
221 1 0.0179808 0.0151793 0.0150449 0.00127312 0.0035285 0.00306512 -2.13506e-07 -4.10762e-07 -1.0542e-06 0.0005 1.46608e-07 
222 1 -0.0100358 0.0163386 0.0214554 -0.140813 0.000791555 -0.843312 0 0 -1.43822e-06 0.0005 1.46608e-07 
223 1 0.0210938 0.0178608 0.0168348 0.00204983 -0.00124707 0.0233013 2.09005e-06 3.53702e-07 8.30065e-07 0.0005 1.46608e-07 
224 1 0.0132981 0.0210432 0.0154737 0.00506979 0.00410882 -0.00285808 -1.04575e-06 3.04303e-06 -9.55542e-07 0.0005 1.46608e-07 
225 1 0.0140274 0.0225477 0.0155956 0.00813734 0.00683819 -0.00375893 4.12867e-08 -1.95715e-07 -1.84688e-06 0.0005 1.46608e-07 
226 1 0.0242147 0.0175723 0.0165452 -0.00189402 0.00664571 0.00226466 1.00001e-06 -2.87686e-06 -9.4377e-07 0.0005 1.46608e-07 
227 1 0.018889 0.0204055 0.0213272 0 -0 -0.03 0 0 0 0.0005 1.46608e-07 
228 1 0.0208851 0.0177267 0.0241007 0 -0 -0.03 0 0 0 0.0005 1.46608e-07 
229 1 0.0180859 0.0184071 0.0197067 0 -0 -0.03 0 0 0 0.0005 1.46608e-07 
230 1 0.0238538 0.0202489 0.0172125 0.000134089 0.00828701 0.00712992 1.76887e-06 -5.08317e-06 7.4361e-06 0.0005 1.46608e-07 
231 1 0.0215828 0.0175298 0.0204876 0 -0 -0.03 0 0 0 0.0005 1.46608e-07 
232 1 0.0150591 0.0216365 0.0169923 -0.000186323 -0.000870375 0.00073494 -2.82901e-08 1.80461e-07 -7.51414e-07 0.0005 1.46608e-07 
233 1 0.0156904 0.0213672 0.0162651 0.00181224 0.000426339 0.00159376 -9.63178e-07 1.87698e-06 -1.55696e-06 0.0005 1.46608e-07 
234 1 0.017829 0.0170462 0.0191005 0 -0 -0.03 0 0 0 0.0005 1.46608e-07 
235 1 0.0178526 0.020585 0.0165428 0.00239476 0.00232556 0.00158038 9.32358e-09 -1.78401e-06 2.22981e-06 0.0005 1.46608e-07 
236 1 0.0191783 0.0221719 0.0219709 0 -0 -0.03 0 0 0 0.0005 1.46608e-07 
237 1 0.0189305 0.0156013 0.0155023 -0.00485555 0.00976172 0.00877046 1.52361e-07 -1.99746e-07 -2.1688e-07 0.0005 1.46608e-07 
238 1 0.019851 0.0228185 0.0172445 0.00622207 0.0135731 -0.00163556 0 0 -1.43822e-06 0.0005 1.46608e-07 
239 1 0.0193669 0.0231578 0.0207461 0 -0 -0.03 0 0 0 0.0005 1.46608e-07 
240 1 0.0171385 0.0198365 0.023434 0 -0 -0.03 0 0 0 0.0005 1.46608e-07 
241 1 0.0220084 0.019851 0.0193627 0 -0 -0.03 0 0 0 0.0005 1.46608e-07 
242 1 0.0200309 0.0219762 0.0229268 0 -0 -0.03 0 0 0 0.0005 1.46608e-07 
243 1 0.0229353 0.0189706 0.0175576 -0.0177976 -0.00661586 -0.00143293 0 0 -1.43822e-06 0.0005 1.46608e-07 
244 1 0.0206875 0.0232089 0.0176803 0.0107857 0.0177209 -0.00139731 0 0 -1.43822e-06 0.0005 1.46608e-07 
245 1 0.0206947 0.0232319 0.0199239 0 -0 -0.03 0 0 0 0.0005 1.46608e-07 
246 1 0.0171541 0.0151369 0.0189662 0 -0 -0.03 0 0 0 0.0005 1.46608e-07 
247 1 0.0193139 0.0185347 0.0191922 0 -0 -0.03 0 0 0 0.0005 1.46608e-07 
248 1 0.0229379 0.0181772 0.0224587 0 -0 -0.03 0 0 0 0.0005 1.46608e-07 
249 1 0.0157168 0.0192946 0.0216796 0 -0 -0.03 0 0 0 0.0005 1.46608e-07 
250 1 0.0195778 0.0223365 0.0157537 0.000554284 -0.00774907 0.00789453 6.2773e-07 2.16088e-06 -4.37924e-07 0.0005 1.46608e-07 
251 1 0.0157582 0.0206978 0.0196347 0 -0 -0.03 0 0 0 0.0005 1.46608e-07 
252 1 0.0196655 0.0162549 0.0193447 0 -0 -0.03 0 0 0 0.0005 1.46608e-07 
253 1 0.0184883 0.0202613 0.0202301 0 -0 -0.03 0 0 0 0.0005 1.46608e-07 
254 1 0.0173648 0.0186375 0.0215452 0 -0 -0.03 0 0 0 0.0005 1.46608e-07 
255 1 0.0176879 0.0240701 0.0166003 -0.00337431 -0.000691064 -1.46334e-05 -3.2183e-07 9.80456e-08 -1.77067e-07 0.0005 1.46608e-07 
256 1 0.0208702 0.0219483 0.020096 0 -0 -0.03 0 0 0 0.0005 1.46608e-07 
257 1 0.0211758 0.0203937 0.0177065 0.000419201 0.00196494 -0.00155506 -1.04007e-06 -4.00756e-07 2.4291e-06 0.0005 1.46608e-07 
258 1 0.0221917 0.021245 0.0180469 0 0 -0.0919452 0 0 -1.43822e-06 0.0005 1.46608e-07 