ITEM: TIMESTEP
11200000
ITEM: NUMBER OF ATOMS
147
ITEM: BOX BOUNDS ff ff ff
-0.02 0.43
-0.02 0.06
-0.02 0.07
ITEM: ATOMS id type x y z vx vy vz fx fy fz radius mass 
1 1 0.0188345 0.0170756 0.0154971 0.000523499 0.0183338 0.00924165 -4.27624e-10 8.90727e-09 -1.32552e-08 0.0005 1.46608e-07 
2 1 0.0219963 0.0206928 0.0164929 -5.85043e-10 0.0234842 -0.00775682 -4.83543e-15 -5.31905e-09 -1.60038e-08 0.0005 1.46608e-07 
4 1 0.0188469 0.0232301 0.0129347 0.00172659 0.000208093 -0.00287002 1.7638e-08 2.94107e-07 -1.90981e-06 0.0005 1.46608e-07 
5 1 0.031698 0.0148425 0.0121385 0.000421345 0.00399886 0.0195127 -2.05632e-06 -7.38046e-07 7.41363e-07 0.0005 1.46608e-07 
11 1 0.0227308 0.0234325 0.0113409 0.000920097 -0.000686876 -0.0179462 -1.09962e-07 1.80495e-08 1.87915e-08 0.0005 1.46608e-07 
13 1 0.0205191 0.0243318 0.0138399 -0.000189813 -2.9191e-05 -0.000201477 3.20429e-07 -5.46243e-07 4.4598e-07 0.0005 1.46608e-07 
15 1 0.00938048 0.0183393 0.00587271 3.64236e-15 5.66249e-16 -3.69009e-14 -2.2764e-21 -1.83072e-20 -6.35275e-22 0.0005 1.46608e-07 
16 1 0.0238138 0.0213292 0.0153606 0.00172443 0.00751517 -0.00283914 -2.68884e-07 1.52101e-06 -7.78422e-07 0.0005 1.46608e-07 
17 1 0.0296028 0.0219685 0.0146651 0.000557976 0.0144265 -0.013869 -5.4996e-09 3.57833e-09 -1.72954e-08 0.0005 1.46608e-07 
18 1 0.0366849 0.0218066 0.0435188 -9.6879e-317 9.73506e-317 2.68131e-13 0 0 0 0.0005 1.46608e-07 
19 1 0.0234387 0.0226466 0.0141401 0.00196575 0.00191472 -0.00239865 7.61916e-10 7.3275e-08 -2.42339e-07 0.0005 1.46608e-07 
20 1 0.034624 0.0232448 0.0104345 0.00252885 -0.00310263 -0.0108526 -2.4102e-06 1.05135e-07 -7.29158e-06 0.0005 1.46608e-07 
23 1 0.0195393 0.0244461 0.0136813 0.000137235 -4.58072e-05 -0.000154107 -7.95862e-07 -5.2889e-07 5.19323e-07 0.0005 1.46608e-07 
24 1 0.0282968 0.0227718 0.00921813 0.000552742 -0.0105993 -0.0159983 1.58383e-08 -6.29729e-08 -1.491e-08 0.0005 1.46608e-07 
25 1 0.0237556 0.0211041 0.0163331 0.00566047 0.0455927 0.00184725 -1.05973e-06 -3.24893e-06 1.81224e-06 0.0005 1.46608e-07 
27 1 0.0198849 0.0236035 0.0140994 -0.00624074 0.00257672 -0.00554232 -3.63967e-07 3.00549e-07 -1.53109e-06 0.0005 1.46608e-07 
28 1 0.0318244 0.0147877 0.0113985 0.000708566 -0.00174507 0.0203477 4.35009e-06 5.15458e-07 -4.28261e-07 0.0005 1.46608e-07 
31 1 0.0136886 0.021704 0.0150638 0.00360496 0.00546954 -0.00434396 2.7961e-10 2.8765e-09 6.51645e-09 0.0005 1.46608e-07 
32 1 0.0202797 0.0150965 0.00974835 0.000183577 -0.00710692 0.0182501 -1.17077e-08 1.81259e-07 -1.41823e-07 0.0005 1.46608e-07 
33 1 0.0204448 0.014758 0.0128539 0.00465031 0.00527133 0.0108613 -3.23295e-07 6.66708e-07 1.31637e-06 0.0005 1.46608e-07 
35 1 0.0204284 0.0155139 0.00904881 0.000756586 -0.0112807 0.0147427 3.46033e-08 5.21142e-07 -1.11071e-06 0.0005 1.46608e-07 
37 1 0.030847 0.0169969 0.015264 0.000892865 0.00738942 0.00395725 9.12589e-09 -6.12752e-09 3.12006e-08 0.0005 1.46608e-07 
40 1 0.0197212 0.0146735 0.0122242 0.000634108 0.00351264 0.0180013 -2.82259e-08 1.3195e-07 5.27085e-07 0.0005 1.46608e-07 
41 1 0.0111354 0.0177996 0.0325371 -0.0109082 -0.115486 -0.0133636 0 0 -1.43822e-06 0.0005 1.46608e-07 
43 1 0.0171591 0.0231679 0.0130606 0.00407179 0.00202679 -0.00758474 -2.76764e-08 1.95499e-08 -1.06339e-07 0.0005 1.46608e-07 
44 1 0.0249057 0.016747 0.0153417 0.00117755 0.0163857 0.0339983 -1.44178e-05 2.50004e-05 5.1336e-06 0.0005 1.46608e-07 
47 1 0.0199808 0.0148462 0.0106599 0.000171305 -0.0047305 0.0210375 -2.0593e-08 2.12109e-08 3.26313e-07 0.0005 1.46608e-07 
49 1 0.003617 0.0285782 0.0435188 -9.68849e-317 -9.75601e-317 2.88878e-12 0 0 0 0.0005 1.46608e-07 
52 1 0.0333223 0.0163171 0.00813023 0.00342799 -0.00938106 0.00443436 -1.02317e-08 8.80998e-08 -5.99129e-08 0.0005 1.46608e-07 
54 1 0.0214196 0.0142922 0.0134862 0.00526537 0.000607555 0.00456569 7.1084e-07 2.31645e-07 1.52578e-06 0.0005 1.46608e-07 
57 1 0.0196051 0.0193773 0.00612808 -3.58959e-14 1.6107e-14 -3.28527e-13 -9.79382e-22 -1.87671e-20 -1.05879e-21 0.0005 1.46608e-07 
59 1 0.0325421 0.0161098 0.00836281 0.00130519 -0.0132088 0.0135859 -4.23021e-08 9.47346e-08 -1.81214e-07 0.0005 1.46608e-07 
62 1 0.0194415 0.019774 0.0158885 1.3161e-09 0.0202848 -0.00320098 3.6002e-15 -2.01478e-09 -1.35218e-08 0.0005 1.46608e-07 
63 1 0.0167507 0.0142094 0.0135512 0.000183238 -0.000280045 0.000722279 9.39322e-09 8.92958e-09 -1.68357e-08 0.0005 1.46608e-07 
65 1 0.0341265 0.0222518 0.00858916 0.00151717 -0.00589533 -0.00902581 -7.08758e-09 1.61064e-08 1.98918e-08 0.0005 1.46608e-07 
67 1 0.0320444 0.0148998 0.0103948 0.000243464 -0.00503784 0.019858 -6.28762e-10 8.37552e-09 9.38064e-09 0.0005 1.46608e-07 
68 1 0.0327779 0.0168523 0.00778837 0.000864918 -0.0168697 0.00913145 -1.78105e-08 1.33825e-08 1.32358e-09 0.0005 1.46608e-07 
71 1 0.0192976 0.0154402 0.0140917 0.00262634 0.00696049 0.00929406 1.05279e-07 -4.86279e-08 -2.69642e-07 0.0005 1.46608e-07 
73 1 0.0172342 0.0240618 0.0131305 0.00194865 0.000488254 -0.00252072 -1.0856e-07 -4.7366e-08 2.24291e-08 0.0005 1.46608e-07 
74 1 0.0255488 0.0183869 0.0159175 0.153235 -0.318034 -0.026912 0 0 -1.43822e-06 0.0005 1.46608e-07 
76 1 0.0202333 0.0156447 0.014379 0.00503503 0.00358929 0.0031207 5.51332e-07 8.22464e-07 -4.522e-07 0.0005 1.46608e-07 
79 1 0.0304388 0.0183977 0.0157523 0.00024246 0.0198089 0.0035882 1.785e-09 -1.5242e-08 -1.26249e-08 0.0005 1.46608e-07 
80 1 0.0211725 0.0182637 0.00728099 0.000153182 -0.021294 0.00381548 -8.27587e-10 -5.93943e-09 1.22117e-08 0.0005 1.46608e-07 
84 1 0.0264714 0.0156538 0.00877771 0.000764134 -0.0113011 0.0146284 -6.40037e-09 -6.62451e-09 3.05978e-08 0.0005 1.46608e-07 
85 1 0.024668 0.0215176 0.015414 0.00043565 0.000933278 -0.000492184 -3.19765e-08 -5.50917e-07 -5.4686e-07 0.0005 1.46608e-07 
86 1 0.02299 0.0147374 0.0145015 0.0039471 0.00126894 0.00396268 -9.30897e-07 5.03282e-07 -2.01892e-07 0.0005 1.46608e-07 
87 1 0.0310628 0.0160002 0.0145198 0.000388112 0.0152199 0.0144586 -9.79511e-10 1.11986e-08 7.96652e-10 0.0005 1.46608e-07 
88 1 0.0325462 0.0186774 0.00722366 -0.00326861 -0.0193711 0.00010842 -7.16945e-09 -7.03225e-08 7.46956e-09 0.0005 1.46608e-07 
89 1 0.033712 0.020828 0.00767013 0.00112912 -0.0167905 -0.00618408 -6.11304e-09 -2.17135e-08 -3.58765e-09 0.0005 1.46608e-07 
90 1 0.0237511 0.0220503 0.014783 0.00349915 0.00458652 -0.00335293 7.09203e-07 6.64542e-07 -1.07913e-06 0.0005 1.46608e-07 
92 1 0.0302893 0.0192167 0.0158395 0.0014507 0.0128958 0.00117998 5.96029e-09 -6.31692e-08 4.98897e-09 0.0005 1.46608e-07 
97 1 0.0195239 0.0149425 0.0131969 0.00282518 0.00397115 0.00999611 7.28535e-07 1.88438e-06 4.93318e-06 0.0005 1.46608e-07 
103 1 0.0286883 0.0233175 0.0107726 0.000182039 -0.00220212 -0.018227 -1.94322e-09 -2.33531e-08 3.31522e-08 0.0005 1.46608e-07 
105 1 0.0250046 0.0193706 0.0162149 -0.00935979 -0.129258 0.295968 0 0 -1.43822e-06 0.0005 1.46608e-07 
106 1 0.0231121 0.0231815 0.0128277 0.00108198 0.00592056 -0.0181896 1.13271e-08 -1.48199e-08 1.0639e-08 0.0005 1.46608e-07 
108 1 0.0214483 0.0168437 0.00645098 -2.38718e-14 5.08833e-14 1.84335e-13 1.19114e-21 -8.31151e-21 2.75286e-21 0.0005 1.46608e-07 
109 1 0.024202 0.0203168 0.0157744 0.0748554 0.0241961 -0.0228019 0 0 -1.43822e-06 0.0005 1.46608e-07 
110 1 0.0203367 0.0144627 0.0146373 0.0108258 0.00568113 0.0100617 1.84566e-07 1.20437e-07 -2.00375e-07 0.0005 1.46608e-07 
112 1 0.0274462 0.0197092 0.00723091 2.36878e-05 -0.0218913 -0.00482056 -6.72113e-10 -4.87656e-09 9.04527e-09 0.0005 1.46608e-07 
116 1 0.0176018 0.0243445 0.0139778 -6.01548e-05 -0.000367311 -0.000346484 1.64313e-06 3.4584e-07 -8.42618e-07 0.0005 1.46608e-07 
121 1 0.0551527 0.0181697 0.00595147 -1.30039e-14 -1.7669e-14 -2.51655e-13 4.7778e-21 -1.18717e-20 4.23516e-22 0.0005 1.46608e-07 
122 1 0.0350596 0.023226 0.0126312 0.000129846 0.00685429 -0.0214912 -1.96662e-09 -9.51666e-09 -9.84184e-09 0.0005 1.46608e-07 
124 1 0.0208627 0.016442 0.0155935 0.000173732 0.020706 0.0131827 4.66464e-08 -1.79238e-07 -3.95503e-07 0.0005 1.46608e-07 
125 1 0.0347906 0.0233823 0.0113279 0.000758781 -0.000617741 -0.0186227 4.93518e-07 -2.19464e-06 4.34855e-06 0.0005 1.46608e-07 
126 1 0.0191726 0.0240914 0.0128506 0.000509863 5.16685e-05 -0.000550087 9.25013e-08 -7.57729e-08 -6.21867e-07 0.0005 1.46608e-07 
128 1 0.0303903 0.00406748 0.0435188 -9.67556e-317 -9.75879e-317 -3.22607e-12 0 0 0 0.0005 1.46608e-07 
130 1 0.0209148 0.015209 0.014967 0.00937345 0.0103176 0.000829392 -4.52499e-07 -1.0518e-06 -8.89239e-07 0.0005 1.46608e-07 
131 1 0.0295352 0.0233833 0.0110534 -0.000109615 -0.00107244 -0.0216038 -1.00218e-09 -1.28661e-08 -3.29176e-09 0.0005 1.46608e-07 
133 1 0.0228206 0.0230525 0.0098856 0.00426534 -0.00198438 -0.00891853 2.59354e-05 -2.33953e-05 5.8602e-06 0.0005 1.46608e-07 
135 1 0.0339604 0.0216482 0.00803229 0.00100252 -0.0109902 -0.00812504 1.39702e-09 1.85014e-08 7.08988e-09 0.0005 1.46608e-07 
137 1 0.0196345 0.0136651 0.0136469 0.0117083 0.000164574 0.00413566 -8.76414e-07 8.84415e-07 -9.92623e-07 0.0005 1.46608e-07 
138 1 0.0182324 0.0230133 0.0137066 0.0234655 0.000774668 -0.0294685 0 0 -1.43822e-06 0.0005 1.46608e-07 
139 1 0.0252375 0.015476 0.0138874 0.00188293 0.0106688 0.0139646 -9.9455e-08 2.62529e-07 3.0278e-07 0.0005 1.46608e-07 
141 1 0.0190392 0.0162294 0.0149563 -4.82862e-05 0.0175043 0.0152694 -2.11025e-07 3.02368e-07 9.51734e-07 0.0005 1.46608e-07 
142 1 0.0355178 0.022188 0.0143938 -0.000240944 0.0164961 -0.015223 4.2727e-09 -5.67523e-09 -1.35333e-08 0.0005 1.46608e-07 
143 1 0.028843 0.0233657 0.0117081 0.000375956 0.00116589 -0.0204424 1.85312e-09 -1.10925e-08 2.14567e-09 0.0005 1.46608e-07 
147 1 0.0268421 0.0170175 0.00767085 0.00624438 0.00228136 -0.001504 -4.4334e-06 3.31784e-06 1.36407e-05 0.0005 1.46608e-07 
149 1 0.0570019 0.0175547 0.00590579 4.32478e-15 1.18867e-14 2.80768e-13 1.35922e-20 -8.04681e-21 -2.11758e-22 0.0005 1.46608e-07 
150 1 0.0214094 0.0147554 0.0126192 0.00346065 0.00302004 0.00687647 -3.05236e-07 1.22426e-06 2.8244e-06 0.0005 1.46608e-07 
151 1 0.0209041 0.0151457 0.0136554 0.0111352 0.00605828 0.0101488 -3.87641e-07 -6.42724e-07 -6.70705e-07 0.0005 1.46608e-07 
157 1 0.0200984 0.0240979 0.0128333 0.00041496 -0.000501498 4.75043e-05 -5.69353e-08 2.99357e-08 -2.75144e-07 0.0005 1.46608e-07 
158 1 0.0227467 0.0235447 0.0143041 -0.00487066 0.000798989 -0.0041447 -7.07241e-09 1.08988e-08 1.05754e-08 0.0005 1.46608e-07 
160 1 0.032379 0.0154186 0.00922454 0.0776626 -0.119811 -0.0544191 0.0274997 -0.105116 -0.0546528 0.0005 1.46608e-07 
161 1 0.0221348 0.00230077 0.0435188 9.74157e-317 -9.69799e-317 9.23294e-13 0 0 0 0.0005 1.46608e-07 
165 1 0.0165133 0.0238199 0.0137877 0.002073 0.00137277 -0.00034688 5.12739e-10 1.16048e-08 2.25724e-08 0.0005 1.46608e-07 
166 1 0.027954 0.0215579 0.00798798 0.000522296 -0.0153707 -0.010572 3.14578e-07 9.86202e-08 1.33147e-07 0.0005 1.46608e-07 
167 1 0.018433 0.0137627 0.0138925 -0.000241363 -0.000502737 0.000342946 -3.31256e-07 1.42558e-07 7.89833e-07 0.0005 1.46608e-07 
170 1 0.0175885 0.0225145 0.014302 0.000821998 0.018308 -0.0220148 -3.69773e-08 3.08956e-07 -3.75199e-07 0.0005 1.46608e-07 
171 1 0.0169746 0.0234445 0.0122483 0.00425669 0.00101132 -0.00567876 -8.93752e-08 -1.88646e-08 -8.68151e-08 0.0005 1.46608e-07 
173 1 0.0176712 0.0234584 0.0118738 0.00362899 -0.000947606 -0.00680995 -2.6233e-07 6.00344e-08 -2.40681e-07 0.0005 1.46608e-07 
174 1 0.0203277 0.0186231 0.0159346 -1.94173e-10 0.020498 0.00180508 -4.8571e-16 1.05623e-09 -1.36641e-08 0.0005 1.46608e-07 
179 1 0.0189017 0.0139924 0.0130503 0.00994481 0.0011311 0.00789075 -1.19193e-06 7.86724e-07 1.35999e-06 0.0005 1.46608e-07 
185 1 0.0301336 0.0200631 0.0156321 0.00136213 0.0161244 -0.00497246 -8.85712e-11 -1.11256e-08 -3.81188e-09 0.0005 1.46608e-07 
186 1 0.0285136 0.0231173 0.00997002 0.000442932 -0.00694438 -0.0190197 -7.06723e-09 -1.5083e-08 -1.14015e-08 0.0005 1.46608e-07 
187 1 0.0277238 0.0207538 0.0075805 0.000278235 -0.0190902 -0.00765756 -8.20245e-07 -1.00109e-06 1.53306e-07 0.0005 1.46608e-07 
191 1 0.0245116 0.0184087 0.0164968 0.0187494 -0.132582 0.576474 0 0 -1.43822e-06 0.0005 1.46608e-07 
193 1 0.0221204 0.0143488 0.0141972 0.00452338 0.000414228 0.00437755 9.11848e-07 -4.50408e-07 2.88399e-07 0.0005 1.46608e-07 
194 1 0.0272173 0.0184978 0.00721092 0.000269062 -0.0202591 0.0028682 -9.73227e-10 -5.7769e-09 1.10107e-08 0.0005 1.46608e-07 
197 1 0.0290728 0.023229 0.0127331 0.00101458 0.00592856 -0.0169811 1.40666e-09 -1.59621e-08 -2.15874e-10 0.0005 1.46608e-07 
199 1 0.0218912 0.0238021 0.0137542 -0.00514817 0.00110127 -0.00425372 1.52342e-08 3.38352e-09 2.43407e-08 0.0005 1.46608e-07 
200 1 0.0183707 0.023886 0.0124081 0.0016565 0.000338126 -0.00255903 -1.60344e-07 1.3322e-07 -3.93898e-07 0.0005 1.46608e-07 
205 1 0.0294004 0.0226052 0.0138409 0.000484511 0.00785201 -0.0112981 3.47743e-08 -8.55086e-08 1.16384e-07 0.0005 1.46608e-07 
206 1 0.0178839 0.0216852 0.0150796 -0.0170992 0.00766975 -0.00602051 6.55728e-07 8.91904e-07 -6.25584e-07 0.0005 1.46608e-07 
211 1 0.0204506 0.0142452 0.0136679 0.00647088 0.00690643 0.00956537 3.72244e-07 6.81164e-08 8.07969e-07 0.0005 1.46608e-07 
215 1 0.0268146 0.0190088 0.00598366 -1.911e-14 -3.07691e-15 3.11554e-13 0 -1.15805e-23 0 0.0005 1.46608e-07 
220 1 0.0205821 0.0174692 0.0156501 1.27073e-09 0.0191661 0.00726982 -4.26804e-12 4.32931e-09 -1.29519e-08 0.0005 1.46608e-07 
221 1 0.0210269 0.0240031 0.0130455 0.000255989 -0.000121875 -0.000247503 -8.13111e-08 2.42143e-08 -3.2474e-08 0.0005 1.46608e-07 
224 1 0.0227541 0.0154001 0.0152801 0.00495139 0.000751748 0.00277375 -1.35949e-07 -2.27103e-07 -1.72523e-07 0.0005 1.46608e-07 
225 1 0.0179824 0.0233928 0.0111701 0.000317699 -0.00141347 -0.00883686 -4.96788e-08 8.90966e-09 -8.17097e-09 0.0005 1.46608e-07 
226 1 0.0333499 0.0193961 0.00728244 -6.2529e-05 -0.0201027 -0.00257134 -1.06817e-08 8.02728e-08 1.80554e-08 0.0005 1.46608e-07 
227 1 0.0258799 0.0189946 0.0167386 -0.00179351 0.0145657 -0.00190153 -5.29066e-07 -4.11241e-07 -1.11896e-06 0.0005 1.46608e-07 
228 1 0.0255495 0.020508 0.0156753 -0.00645854 0.00761645 -0.0016322 5.8665e-05 -4.47853e-05 2.34411e-05 0.0005 1.46608e-07 
229 1 0.0315155 0.0150727 0.0129036 0.0013436 0.00631343 0.0167131 1.1028e-07 8.44334e-08 2.36233e-07 0.0005 1.46608e-07 
232 1 0.0221996 0.00109062 0.0435188 9.58743e-317 9.68145e-317 4.97437e-14 0 0 0 0.0005 1.46608e-07 
235 1 0.0179225 0.0232834 0.0127755 0.00278722 0.00133176 -0.00656757 -1.07251e-07 1.48828e-07 -4.38143e-07 0.0005 1.46608e-07 
237 1 0.0312874 0.0154509 0.0137843 -0.000230415 0.00950508 0.0199211 -6.05554e-09 -4.30917e-09 -7.72749e-09 0.0005 1.46608e-07 
240 1 0.0218989 0.0150435 0.0149031 0.00717946 0.000313285 -0.00435711 4.41161e-07 -2.26253e-07 -4.19743e-07 0.0005 1.46608e-07 
241 1 0.0218284 0.0211975 0.00785326 0.00013575 -0.0187192 -0.0122236 2.11341e-10 -8.77193e-09 8.68271e-09 0.0005 1.46608e-07 
242 1 0.0175038 0.0145025 0.0141402 0.000627689 0.0020674 -0.000968106 5.11611e-08 -1.6439e-08 -1.46325e-07 0.0005 1.46608e-07 
247 1 0.0343236 0.0228227 0.00941405 0.000200856 -0.0100209 -0.018918 -5.97742e-10 -1.17924e-08 5.06957e-10 0.0005 1.46608e-07 
248 1 0.0208168 0.0148763 0.010461 -7.47384e-05 -0.00513254 0.0204088 7.16812e-08 4.83151e-08 -1.69894e-07 0.0005 1.46608e-07 
250 1 0.0205876 0.0161091 0.00833199 0.00133013 -0.0126478 0.0104833 -2.72074e-07 -3.46123e-07 6.44943e-07 0.0005 1.46608e-07 
252 1 0.0237015 0.0151691 0.0150559 0.00430931 0.00567006 0.000940384 -9.93138e-08 -3.9112e-08 -1.03465e-06 0.0005 1.46608e-07 
253 1 0.0184631 0.0146278 0.0143931 0.000872598 -3.2786e-05 -0.000547309 1.17136e-07 -1.79294e-07 -1.6627e-07 0.0005 1.46608e-07 
256 1 0.0193808 0.0147194 0.0147798 0.00439235 -0.00835508 -0.00692181 2.6502e-07 -2.23913e-07 -7.50095e-07 0.0005 1.46608e-07 
257 1 0.018332 0.0203263 0.0157651 -9.28875e-11 0.0196527 -0.00603065 -1.82871e-16 -4.14009e-09 -1.30472e-08 0.0005 1.46608e-07 
258 1 0.0298059 0.0211915 0.0152433 9.70693e-05 0.0199673 -0.00966778 4.70682e-10 -2.27856e-09 -1.08195e-08 0.0005 1.46608e-07 
260 1 0.108836 0.0200055 0.00584234 7.6709e-16 -1.27682e-15 -6.97331e-15 0 0 0 0.0005 1.46608e-07 
262 1 0.0247193 0.0175012 0.0159677 0.00588337 -0.100946 0.22503 -7.71158e-05 0.000202754 0.000131838 0.0005 1.46608e-07 
263 1 0.0159353 0.014464 0.0140711 -0.000422347 0.000610858 -0.000492234 5.11193e-08 -1.03073e-07 -2.08407e-08 0.0005 1.46608e-07 
268 1 0.0177167 0.0140913 0.0132463 0.0004891 0.000306386 -0.00114439 -1.34308e-08 -1.07836e-08 3.74738e-08 0.0005 1.46608e-07 
269 1 0.0234719 0.02338 0.0111565 0.00249183 -0.00046446 -0.0166558 -1.40423e-07 -3.90094e-08 4.59372e-07 0.0005 1.46608e-07 
270 1 0.0243649 0.0156967 0.0155999 0.00348719 0.00302602 0.00429831 -1.22776e-07 -1.21503e-07 -7.27686e-08 0.0005 1.46608e-07 
271 1 0.0262235 0.0150944 0.00982159 0.000226692 -0.008627 0.0196412 -9.10986e-10 7.542e-09 1.01021e-08 0.0005 1.46608e-07 
272 1 0.0235082 0.0230324 0.01506 -0.00121374 0.000619557 -0.00162002 -8.87012e-09 1.3283e-08 -6.26902e-10 0.0005 1.46608e-07 
274 1 0.0193167 0.0227649 0.0139451 0.0179469 0.0165426 -0.00849395 0 0 -1.43822e-06 0.0005 1.46608e-07 
275 1 0.0204942 0.0147184 0.0115269 0.000651345 -0.00290866 0.0226096 1.5602e-05 1.35848e-07 -9.348e-07 0.0005 1.46608e-07 
277 1 0.0212098 0.0232619 0.0146452 0.000877073 0.0347583 -0.0436251 8.9647e-09 3.24812e-07 -4.83086e-07 0.0005 1.46608e-07 
282 1 0.0156754 0.023475 0.0143497 0.00487544 0.00212768 -0.00302893 -1.50417e-08 1.28481e-09 2.51199e-08 0.0005 1.46608e-07 
284 1 0.00937694 0.00505359 0.0435188 -9.68799e-317 -9.69932e-317 9.23294e-13 0 0 0 0.0005 1.46608e-07 
286 1 0.0186881 0.0222746 0.0145569 0.0161778 0.00564466 -0.00586172 -5.87238e-07 3.33296e-06 -5.91284e-07 0.0005 1.46608e-07 
288 1 0.0183486 0.0239739 0.0134071 -0.00676301 0.00409762 -0.0081439 0 0 -1.43822e-06 0.0005 1.46608e-07 
289 1 0.0222721 0.022802 0.00937568 0.00158427 -0.00433713 -0.00843006 -7.3908e-06 1.9343e-05 5.53214e-07 0.0005 1.46608e-07 
291 1 0.0199648 0.0165406 0.015167 0.000148217 0.0185771 0.0127886 -1.49025e-07 1.0211e-06 2.10325e-07 0.0005 1.46608e-07 
294 1 0.0210588 0.0137275 0.0142104 0.00395499 0.000266512 0.00278613 4.5162e-07 6.75363e-09 4.22158e-07 0.0005 1.46608e-07 
299 1 0.024947 0.0190645 0.00586966 2.61451e-15 3.412e-16 -4.25295e-14 4.96308e-21 5.24598e-21 2.11758e-22 0.0005 1.46608e-07 
300 1 0.0281042 0.0222139 0.00855059 0.000352252 -0.0136296 -0.0148167 -9.41924e-08 4.73877e-08 6.44726e-08 0.0005 1.46608e-07 
