ITEM: TIMESTEP
7800000
ITEM: NUMBER OF ATOMS
181
ITEM: BOX BOUNDS ff ff ff
-0.02 0.43
-0.02 0.06
-0.02 0.07
ITEM: ATOMS id type x y z vx vy vz fx fy fz radius mass 
1 1 0.0210689 0.016511 0.0151502 -0.00378221 0.0213915 0.00814924 3.52759e-05 -1.34509e-05 -1.71414e-05 0.0005 1.46608e-07 
2 1 0.0220015 0.0145186 0.014421 0.0228131 -0.0247248 -0.00334753 0 0 -1.43822e-06 0.0005 1.46608e-07 
3 1 0.0204804 0.0235447 0.0142213 0.0107174 -0.014081 0.0050145 -1.57746e-05 5.05921e-05 5.39021e-05 0.0005 1.46608e-07 
4 1 0.0214335 0.0233845 0.0157948 -0.005927 0.00637805 0.0164027 0 0 -1.43822e-06 0.0005 1.46608e-07 
5 1 0.0285691 0.0194989 0.00723672 0.000512735 -0.0219441 -0.00293329 3.03861e-09 -5.77435e-08 -1.36198e-08 0.0005 1.46608e-07 
7 1 0.0208415 0.0215582 0.0151775 -0.00897934 0.0366796 -0.0208881 0 0 -1.43822e-06 0.0005 1.46608e-07 
11 1 0.0237718 0.0223346 0.0154229 -0.00216208 0.0108787 -0.00844425 9.81754e-06 -2.60828e-06 -3.54287e-07 0.0005 1.46608e-07 
13 1 0.0196898 0.024405 0.0134452 -0.00224586 0.000562539 -0.00016983 4.37146e-05 -4.62977e-05 2.94587e-05 0.0005 1.46608e-07 
15 1 0.00938048 0.0183393 0.00587271 3.64609e-15 5.37582e-16 -3.69009e-14 9.79382e-22 -7.54389e-21 0 0.0005 1.46608e-07 
16 1 0.0195633 0.0189315 0.0159454 7.88819e-11 0.020521 0.000666694 2.60546e-16 5.42848e-10 -1.36561e-08 0.0005 1.46608e-07 
17 1 0.0264547 0.0153357 0.0136711 0.000483466 0.00831328 0.0159944 2.7504e-09 1.92294e-08 -3.01363e-08 0.0005 1.46608e-07 
18 1 0.0366849 0.0218066 0.0435188 -9.6879e-317 9.73506e-317 2.68131e-13 0 0 0 0.0005 1.46608e-07 
19 1 0.0190996 0.014793 0.0146366 -1.23377e-05 -0.00117421 0.000237346 -2.38688e-07 -3.47661e-07 -9.03295e-07 0.0005 1.46608e-07 
20 1 0.0311651 0.0201595 0.0156188 0.00110948 0.0192151 -0.00555145 3.52088e-06 -6.52628e-06 -2.51256e-06 0.0005 1.46608e-07 
23 1 0.0188259 0.0244645 0.0137986 -0.00157253 0.000591888 -0.00248221 3.08205e-05 -5.78341e-05 6.50555e-05 0.0005 1.46608e-07 
24 1 0.0248075 0.0215245 0.0151309 -0.000134741 0.00895647 -0.00679421 6.30266e-08 4.5362e-07 -3.0074e-07 0.0005 1.46608e-07 
25 1 0.0185355 0.0236949 0.0136199 0.00223591 -0.00092114 -0.0093053 -1.42897e-05 -4.4739e-05 1.03636e-05 0.0005 1.46608e-07 
27 1 0.0176674 0.0142939 0.0142919 0.000542453 -0.00179238 0.00209806 1.94344e-07 -4.72969e-08 2.04523e-07 0.0005 1.46608e-07 
28 1 0.0287618 0.0205547 0.00747254 0.000277123 -0.0198564 -0.00732049 -2.04056e-09 -8.10091e-09 7.7619e-09 0.0005 1.46608e-07 
29 1 0.0184996 0.0143299 0.0154741 0.000272159 0.000169873 -0.00038093 -1.65997e-07 7.90456e-09 1.77053e-07 0.0005 1.46608e-07 
31 1 0.0205737 0.0243886 0.0137829 -0.000166195 -0.00295095 0.00510469 2.05888e-05 -7.17374e-07 9.08287e-05 0.0005 1.46608e-07 
32 1 0.0153633 0.0151444 0.013641 0.00237428 9.71555e-06 -0.00331249 3.20361e-07 3.86809e-07 3.24996e-07 0.0005 1.46608e-07 
33 1 0.0107607 0.0224725 0.03045 -0.00560414 0.2202 0.339496 0 0 -1.43822e-06 0.0005 1.46608e-07 
34 1 0.0207054 0.0149106 0.0155724 0.0160803 0.0062794 -0.0368681 0 0 -1.43822e-06 0.0005 1.46608e-07 
35 1 0.0151764 0.0225608 0.0154183 0.000660972 0.000489116 0.00108118 -5.02467e-07 -1.67887e-06 1.5653e-07 0.0005 1.46608e-07 
37 1 0.0276668 0.0159157 0.0085546 0.000295962 -0.0148511 0.013696 5.32042e-09 2.96775e-08 -1.55231e-08 0.0005 1.46608e-07 
40 1 0.0218499 0.0238047 0.0137307 -0.00799758 -0.00252336 0.0079828 1.79976e-05 -6.58518e-05 5.08837e-05 0.0005 1.46608e-07 
41 1 0.0251944 0.0200392 0.0160172 0.00241888 0.00859156 -0.000491357 8.02749e-07 1.87146e-05 -3.54654e-06 0.0005 1.46608e-07 
43 1 0.0212198 0.0156353 0.014367 -0.00422065 0.00976894 0.0107623 1.03996e-07 -2.60131e-07 -8.47796e-07 0.0005 1.46608e-07 
44 1 0.0194812 0.0237913 0.0142069 -0.00549491 -0.0124209 -0.00947649 0 0 -1.43822e-06 0.0005 1.46608e-07 
45 1 0.0263361 -0.00328593 0.040351 0.097266 -0.148598 -0.550639 0 0 -1.43822e-06 0.0005 1.46608e-07 
47 1 0.0222656 0.0183609 0.0072571 0.000514739 -0.0173682 0.00266882 1.86708e-09 5.50382e-08 1.33694e-10 0.0005 1.46608e-07 
49 1 0.003617 0.0285782 0.0435188 -9.68849e-317 -9.75601e-317 2.88878e-12 0 0 0 0.0005 1.46608e-07 
50 1 0.020568 0.0171073 0.019629 0.00618288 0.0528615 0.0108499 0 0 -1.43822e-06 0.0005 1.46608e-07 
51 1 0.0208852 0.0146474 0.012055 0.00747664 -0.00337475 0.00459408 -7.16945e-06 -6.78735e-06 3.3118e-05 0.0005 1.46608e-07 
52 1 0.0278313 0.0151335 0.00979106 3.25684e-06 -0.00851436 0.0197312 -1.42021e-09 6.39549e-09 8.5907e-09 0.0005 1.46608e-07 
54 1 0.0148075 0.0217015 0.0150644 0.00162457 0.000695527 -0.000744346 -7.15088e-07 -9.60834e-07 -2.9072e-08 0.0005 1.46608e-07 
57 1 0.0196051 0.0193773 0.00612808 -3.58964e-14 1.60999e-14 -3.28527e-13 -2.22346e-21 -4.39398e-21 2.11758e-22 0.0005 1.46608e-07 
59 1 0.0294566 0.0227695 0.00922132 0.00108439 -0.00968198 -0.014468 -1.17189e-08 -2.65492e-08 -2.24758e-08 0.0005 1.46608e-07 
62 1 0.018584 0.0143598 0.0138974 -6.47874e-05 0.000837016 -0.000621816 -7.77627e-10 2.50613e-08 -7.30343e-07 0.0005 1.46608e-07 
63 1 0.0182762 0.0230815 0.0130573 0.000250383 0.00565778 -0.0183785 -1.19631e-05 2.99197e-05 -5.57207e-05 0.0005 1.46608e-07 
65 1 0.0295771 0.020873 0.00760839 0.000316969 -0.0178511 -0.00758629 -6.1567e-09 -2.5439e-08 -3.84583e-09 0.0005 1.46608e-07 
67 1 0.0289922 0.0215703 0.00797013 0.000730882 -0.0139501 -0.0104314 3.45386e-09 -1.15108e-08 6.3115e-09 0.0005 1.46608e-07 
68 1 0.0296879 0.0232323 0.0103319 0.000749067 -0.0056617 -0.0195964 -1.10833e-08 -1.30654e-08 -1.18771e-08 0.0005 1.46608e-07 
71 1 0.0176916 0.0232417 0.0147291 0.0137569 -0.0103178 0.0135571 -1.44708e-07 6.64956e-07 -1.33804e-06 0.0005 1.46608e-07 
73 1 0.0134104 0.0212701 0.0153662 0.000124034 -0.000188429 -0.00189348 1.58921e-07 2.45336e-07 9.59569e-08 0.0005 1.46608e-07 
74 1 0.0204028 0.0240275 0.0126778 0.00070632 0.0013145 -0.000224807 8.16606e-06 2.64122e-05 2.9355e-05 0.0005 1.46608e-07 
76 1 0.0206035 0.0183828 0.0158931 1.22706e-10 0.0202903 0.00300963 1.07484e-15 1.94019e-09 -1.35117e-08 0.0005 1.46608e-07 
79 1 0.0274263 0.0153946 0.00919145 0.000203683 -0.0102721 0.0172434 1.01868e-09 1.16115e-08 8.30926e-09 0.0005 1.46608e-07 
80 1 0.0180514 0.0234835 0.0118013 0.00273732 6.58811e-05 -0.00956956 3.07034e-06 9.81275e-06 9.96633e-06 0.0005 1.46608e-07 
83 1 0.0215921 0.0181256 0.0158458 -0.00800579 0.0505225 0.0134676 0 0 -1.43822e-06 0.0005 1.46608e-07 
84 1 0.0249729 0.0218456 0.0163172 -0.000944329 0.00138663 -0.000770288 1.01211e-07 -3.97677e-07 1.37711e-07 0.0005 1.46608e-07 
85 1 0.0212051 0.0148715 0.0104364 0.00018592 -0.0053197 0.0204143 -4.84503e-10 8.30356e-09 8.57364e-09 0.0005 1.46608e-07 
86 1 0.0233135 0.0208018 0.0164696 0.00477917 -0.071678 0.00878071 0 0 -1.43822e-06 0.0005 1.46608e-07 
87 1 0.0279399 0.0167339 0.00785654 0.00036044 -0.0166751 0.0112618 -6.01357e-08 2.60687e-07 9.62762e-08 0.0005 1.46608e-07 
88 1 0.0300152 0.0233683 0.0116881 0.000242099 0.00119497 -0.0210912 -3.14658e-10 -9.40787e-09 -6.25254e-09 0.0005 1.46608e-07 
89 1 0.030459 0.0226688 0.0138023 0.000171535 0.0115341 -0.0178692 -1.34872e-09 -5.731e-09 -1.08803e-08 0.0005 1.46608e-07 
90 1 0.0212076 0.0144636 0.0138139 0.00144495 0.019429 0.00483617 9.57473e-05 -9.42476e-05 4.31156e-05 0.0005 1.46608e-07 
91 1 0.0232923 0.0223336 0.0088671 0.0017491 -0.0111158 -0.0118746 -1.12905e-08 -1.86051e-08 -1.87907e-08 0.0005 1.46608e-07 
92 1 0.0271382 0.0148448 0.0107106 0.000397976 -0.00265815 0.0129104 6.11976e-10 3.56067e-09 7.32063e-09 0.0005 1.46608e-07 
95 1 0.0233254 0.0159565 0.0157567 0.0177997 0.012252 0.0102518 -3.47309e-07 -1.37753e-07 -5.63998e-07 0.0005 1.46608e-07 
97 1 0.0171271 0.0240856 0.0144103 -6.17963e-05 1.65379e-06 -0.0001031 -2.91333e-07 -5.95217e-08 3.153e-07 0.0005 1.46608e-07 
99 1 0.0230649 0.0215115 0.00819048 0.00205299 -0.0114195 -0.0091218 5.03666e-09 7.17238e-08 3.10763e-08 0.0005 1.46608e-07 
102 1 0.0212135 0.024043 0.0144497 0.00216691 -0.00595412 0.00926195 6.48577e-05 2.53286e-05 1.69248e-05 0.0005 1.46608e-07 
103 1 0.0250004 0.0207408 0.0155462 0.00199756 0.00805435 -0.00420389 -7.35594e-07 5.20597e-06 -2.54088e-06 0.0005 1.46608e-07 
105 1 0.0227514 0.0216588 0.0174694 -0.0255752 -0.0741253 0.236029 0 0 -1.43822e-06 0.0005 1.46608e-07 
106 1 0.0194965 0.0239512 0.0125811 0.000903452 0.000735134 -0.0016661 4.17956e-06 1.79071e-05 6.86642e-06 0.0005 1.46608e-07 
108 1 0.0214483 0.0168437 0.00645098 -2.38533e-14 5.09507e-14 1.84319e-13 -1.9622e-19 -1.52466e-20 -1.927e-20 0.0005 1.46608e-07 
109 1 0.0243155 0.0210938 0.016365 -0.000682012 0.00116882 -0.00302608 -8.48669e-07 1.72356e-07 5.34003e-08 0.0005 1.46608e-07 
110 1 0.0202114 0.0228033 0.0137832 0.00486698 0.00706969 -0.0170392 -4.75405e-06 4.70816e-05 3.59674e-05 0.0005 1.46608e-07 
112 1 0.0235709 0.0229602 0.00954211 -0.000452814 -0.000430812 -0.00306991 -1.6325e-08 9.03879e-09 8.84475e-10 0.0005 1.46608e-07 
116 1 0.0236734 0.0193903 0.0167472 -1.17451e-09 0.0247015 -0.00151344 -5.57321e-11 -9.81465e-10 -1.68526e-08 0.0005 1.46608e-07 
121 1 0.0551527 0.0181697 0.00595147 -1.30138e-14 -1.7665e-14 -2.51654e-13 2.32405e-20 -9.35707e-21 -8.47033e-22 0.0005 1.46608e-07 
122 1 0.0316235 0.0184029 0.015758 0.000526424 0.0195994 0.0038094 -8.7262e-06 1.53466e-06 1.5313e-06 0.0005 1.46608e-07 
124 1 0.0166785 0.0147478 0.0126127 0.0102524 -0.00173928 -0.0103525 6.9549e-08 -3.95313e-08 -2.23107e-08 0.0005 1.46608e-07 
125 1 0.0313968 0.019283 0.015829 0.00143632 0.0156237 2.04483e-05 4.37257e-05 1.61751e-05 -9.33226e-06 0.0005 1.46608e-07 
126 1 0.0173314 0.0240431 0.0126479 0.000869357 0.000159411 -0.00146514 -4.13354e-07 2.41326e-06 4.10316e-06 0.0005 1.46608e-07 
127 1 0.020512 0.0151923 0.0137327 0.00448775 -0.00143666 0.000999043 -1.34006e-07 -5.14683e-07 -3.3536e-07 0.0005 1.46608e-07 
128 1 0.0303903 0.00406748 0.0435188 -9.67556e-317 -9.75879e-317 -3.22607e-12 0 0 0 0.0005 1.46608e-07 
130 1 0.0168902 0.0178815 0.0166308 6.42892e-08 0.0241367 0.00554807 1.4323e-14 4.19918e-09 -1.82855e-08 0.0005 1.46608e-07 
131 1 0.0172917 0.0203441 0.0166008 -5.22524e-09 0.0240316 -0.00599474 -1.57295e-14 -4.01481e-09 -1.64106e-08 0.0005 1.46608e-07 
133 1 0.0220495 0.0163548 0.0150571 -0.00190771 0.0168836 0.0122912 -1.5887e-06 -1.32186e-05 -2.42443e-05 0.0005 1.46608e-07 
135 1 0.0307554 0.0219736 0.0146779 0.0016303 0.0110772 -0.0115764 -2.48347e-07 1.77721e-06 -2.36787e-06 0.0005 1.46608e-07 
137 1 0.0193159 0.0199934 0.0158417 0.000412664 0.0207684 -0.00450382 -4.17719e-10 -1.29741e-09 -1.48432e-08 0.0005 1.46608e-07 
138 1 0.017033 0.02356 0.0155408 0.000129268 -8.56243e-05 -0.000846282 4.45463e-09 7.11911e-10 2.77973e-08 0.0005 1.46608e-07 
139 1 0.0183509 0.0239954 0.0145567 -0.000905535 -0.000212974 -0.00664353 0 0 -1.43822e-06 0.0005 1.46608e-07 
141 1 0.0227164 0.0190095 0.0170381 -0.0619632 -0.00837326 -0.116097 0 0 -1.43822e-06 0.0005 1.46608e-07 
142 1 0.0319425 0.0167549 0.0151583 0.0014596 0.00937319 0.00677809 -4.05123e-10 -2.13472e-08 -1.80612e-08 0.0005 1.46608e-07 
143 1 0.0258419 0.0204042 0.0156408 0.00216476 0.00483115 -9.52866e-05 -7.69089e-07 1.18816e-06 7.96761e-08 0.0005 1.46608e-07 
145 1 0.018368 0.0185866 0.0167411 -8.54754e-09 0.0246608 0.00234158 -2.29015e-14 1.72928e-09 -1.68138e-08 0.0005 1.46608e-07 
147 1 0.0199423 0.0144897 0.0150815 0.00470961 -0.00456608 -0.0103659 2.79488e-07 8.69754e-08 -1.2897e-06 0.0005 1.46608e-07 
149 1 0.0570019 0.0175547 0.00590579 4.32693e-15 1.18965e-14 2.80768e-13 2.38063e-20 -6.98802e-21 0 0.0005 1.46608e-07 
150 1 0.0222736 0.0156383 0.014399 -0.00402456 0.0197994 0.0156646 8.67315e-06 -9.25414e-06 1.75463e-05 0.0005 1.46608e-07 
151 1 0.0200935 0.0206922 0.0156303 6.74741e-11 0.0190996 -0.00749035 -1.63089e-16 -4.91556e-09 -1.27379e-08 0.0005 1.46608e-07 
154 1 0.0221598 0.0205935 0.0165117 5.35294e-09 0.0235262 -0.00745274 8.51949e-15 -5.24886e-09 -1.59932e-08 0.0005 1.46608e-07 
157 1 0.0186034 0.0241575 0.012873 -0.00099853 0.000823708 -0.00245062 -3.02223e-07 2.4483e-05 3.26663e-05 0.0005 1.46608e-07 
158 1 0.0233837 0.0230734 0.0147531 -0.00139244 -0.00121072 -0.0039986 1.13683e-05 2.47034e-05 -1.18768e-05 0.0005 1.46608e-07 
160 1 0.0298041 0.0216922 0.00804966 0.000500292 -0.012385 -0.00987394 -2.21746e-10 -5.45155e-08 -8.31448e-09 0.0005 1.46608e-07 
161 1 0.0221348 0.00230077 0.0435188 9.74157e-317 -9.69799e-317 9.23294e-13 0 0 0 0.0005 1.46608e-07 
165 1 0.0158387 0.0208678 0.0164326 -0.00912082 0.024561 -0.00917693 4.37949e-07 3.13357e-07 -1.51149e-07 0.0005 1.46608e-07 
166 1 0.0166589 0.0232389 0.0146618 1.49881e-05 -0.000682048 -0.000208804 6.57883e-07 3.97579e-07 2.74567e-08 0.0005 1.46608e-07 
167 1 0.01812 0.0236194 0.0125942 0.00162031 0.00337952 -0.0124267 1.12717e-05 2.01081e-05 -7.90749e-06 0.0005 1.46608e-07 
170 1 0.0218423 0.0195983 0.016728 0.00509906 0.024028 -0.00268809 -5.33214e-07 6.8062e-08 -2.87738e-08 0.0005 1.46608e-07 
171 1 0.0251806 0.0194228 0.019097 -0.000522345 -0.059108 -0.0442514 0 0 -1.43822e-06 0.0005 1.46608e-07 
173 1 0.0159679 0.0228171 0.016291 0.00422441 0.0046092 0.00116334 -1.55275e-08 -4.05002e-07 -1.10709e-07 0.0005 1.46608e-07 
174 1 0.022148 0.0239747 0.014591 -0.00152624 -2.47444e-06 0.000632584 1.66725e-05 6.7187e-05 -4.44647e-05 0.0005 1.46608e-07 
175 1 0.0236978 0.0151666 0.0150532 0.0202416 0.010859 0.0129942 -6.12062e-06 6.68393e-06 -6.40898e-07 0.0005 1.46608e-07 
177 1 0.0210744 0.0200879 0.0158193 -0.000451873 0.0246182 -0.00585785 4.70938e-08 -2.71883e-07 3.77283e-08 0.0005 1.46608e-07 
179 1 0.01852 0.023 0.0141527 0.003461 0.00483385 -0.00692679 6.82595e-05 -0.000129275 9.45037e-05 0.0005 1.46608e-07 
185 1 0.0268846 0.0147592 0.0117488 0.00115339 -0.000247432 0.0160769 -2.73389e-09 4.68799e-10 -2.40506e-08 0.0005 1.46608e-07 
186 1 0.0254912 0.0210719 0.0153115 0.00187145 0.00955359 -0.0073288 5.65368e-07 1.57481e-06 -1.2066e-06 0.0005 1.46608e-07 
187 1 0.0236322 0.0231597 0.0102211 0.00270791 0.000381222 -0.00150866 -2.0915e-08 -5.35768e-08 -1.10479e-07 0.0005 1.46608e-07 
191 1 0.0205601 0.0139329 0.0142155 -0.000405759 0.0104996 0.00657415 2.28139e-05 2.84398e-05 4.29358e-05 0.0005 1.46608e-07 
192 1 0.0260288 0.0198653 0.0171622 0.0140954 -0.063499 -0.00816351 4.29863e-07 1.74389e-05 3.6008e-05 0.0005 1.46608e-07 
193 1 0.0218329 0.0172024 0.0155462 0.00457077 0.0243021 0.0205249 0 0 -1.43822e-06 0.0005 1.46608e-07 
194 1 0.0243558 0.0157206 0.0155626 0.0146933 0.0125245 0.0115964 1.26132e-05 6.26537e-06 5.55637e-06 0.0005 1.46608e-07 
197 1 0.0256606 0.0192396 0.0160233 0.000246092 0.00404617 0.00118489 -8.69654e-06 9.26913e-06 -8.04915e-06 0.0005 1.46608e-07 
199 1 0.0211705 0.023983 0.0131386 -0.00184242 -0.000964126 0.00182929 1.30541e-05 -1.99535e-05 -4.75029e-06 0.0005 1.46608e-07 
200 1 0.0151026 0.0232449 0.0146642 0.000497597 0.000492211 0.00139083 -2.30972e-07 -1.13495e-07 -3.53552e-07 0.0005 1.46608e-07 
201 1 0.0193575 0.0226933 0.0140307 0.00922773 0.00530626 -0.00859093 5.15114e-06 0.000110787 -0.000157491 0.0005 1.46608e-07 
205 1 0.0256715 0.0182813 0.0158807 0.00295288 0.00567863 -0.000877067 5.3659e-06 1.39818e-05 -2.5619e-05 0.0005 1.46608e-07 
206 1 0.0216681 0.0150148 0.0152286 -0.012056 0.0244883 -0.0171813 0 0 -1.43822e-06 0.0005 1.46608e-07 
211 1 0.0219817 0.0170322 0.0076773 0.000643821 -0.0158975 0.00734285 -9.50369e-09 -6.74323e-08 1.33041e-07 0.0005 1.46608e-07 
215 1 0.0245225 0.0222957 0.015039 -1.55062e-05 0.00228 -0.00156345 8.43755e-07 9.66641e-07 -8.11428e-07 0.0005 1.46608e-07 
218 1 0.0196557 0.0139879 0.0129905 -0.000525952 -0.00133111 0.00221065 -3.52479e-09 -1.21208e-08 1.96784e-08 0.0005 1.46608e-07 
220 1 0.0188027 0.0217906 0.0163261 -0.0451479 -0.0602023 0.238102 0 0 -1.43822e-06 0.0005 1.46608e-07 
221 1 0.0191841 0.0231248 0.0131635 0.00177773 0.00389089 -0.0103815 4.62831e-05 8.11325e-06 -7.02248e-05 0.0005 1.46608e-07 
223 1 0.0238593 0.0225739 0.016111 -0.00175449 0.00100064 -0.00160362 6.31917e-06 3.98131e-07 -2.51238e-06 0.0005 1.46608e-07 
224 1 0.0177139 0.0242625 0.0135762 0.000247531 0.000489928 0.00025741 -1.98786e-06 -3.835e-06 -9.61064e-06 0.0005 1.46608e-07 
225 1 0.0195605 0.0141554 0.0139717 -0.0017772 -0.00314149 0.00239827 -3.32202e-08 -4.91534e-08 2.2522e-08 0.0005 1.46608e-07 
226 1 0.0302481 0.0231695 0.0127995 0.000367832 0.00698302 -0.0176473 3.10062e-09 -3.24262e-08 -2.01568e-09 0.0005 1.46608e-07 
227 1 0.0198204 0.0176461 0.0157196 0.000596742 0.0193729 0.00633334 -3.63016e-10 5.65505e-09 -1.22112e-08 0.0005 1.46608e-07 
228 1 0.0188867 0.0233931 0.0122378 0.00188248 0.00108885 -0.00653165 2.0071e-05 1.3836e-05 2.45578e-05 0.0005 1.46608e-07 
229 1 0.0283299 0.0186767 0.00718745 0.00133097 -0.0194474 0.00161031 2.99233e-09 -4.05738e-09 1.69371e-08 0.0005 1.46608e-07 
230 1 0.0171808 0.0225821 0.0153937 0.00406713 0.00059934 -0.00141608 1.76718e-08 1.0596e-08 1.05556e-08 0.0005 1.46608e-07 
232 1 0.0221996 0.00109062 0.0435188 9.58743e-317 9.68145e-317 4.97437e-14 0 0 0 0.0005 1.46608e-07 
235 1 0.0152634 0.0172463 0.0155665 0.00402738 -0.0281972 -0.00918483 -3.1705e-08 1.0915e-07 1.08119e-07 0.0005 1.46608e-07 
237 1 0.0280836 0.0175439 0.0074686 0.000177206 -0.0207547 0.00678591 7.95738e-07 -1.53912e-06 2.24352e-06 0.0005 1.46608e-07 
239 1 0.0187769 0.023408 0.0112887 0.00395772 -0.00120632 -0.0065594 4.94838e-06 5.48524e-06 2.93558e-05 0.0005 1.46608e-07 
240 1 0.0236135 0.0232638 0.0155193 -0.000819867 0.00102286 -0.000757158 6.30101e-06 1.01186e-06 -9.44063e-06 0.0005 1.46608e-07 
241 1 0.0208137 0.0173747 0.0156139 -0.00137784 0.0188367 0.00770241 4.7118e-07 -3.11754e-07 -1.38e-07 0.0005 1.46608e-07 
242 1 0.0174764 0.0141192 0.013326 0.000304171 -0.000790253 0.00195583 -1.01391e-07 -1.34028e-08 5.71242e-07 0.0005 1.46608e-07 
246 1 0.0142821 0.0228716 0.0150968 0.000428885 0.000190759 0.000101318 -1.05629e-07 -8.44717e-07 1.29134e-07 0.0005 1.46608e-07 
247 1 0.0311394 0.0209485 0.015287 0.000202431 0.0211803 -0.0114056 -2.69728e-06 -4.77719e-07 8.35575e-08 0.0005 1.46608e-07 
248 1 0.0200771 0.0165935 0.0152106 -0.00283806 0.0182315 0.00648667 2.18443e-05 4.00914e-06 1.33897e-05 0.0005 1.46608e-07 
249 1 0.0160831 0.0155323 0.0142167 0.00106593 -0.000413305 -0.00201971 4.554e-07 -1.01181e-07 -5.60688e-07 0.0005 1.46608e-07 
250 1 0.0157833 0.0144736 0.0142524 0.00050125 0.00110003 -0.00269355 8.94422e-08 9.95918e-08 -4.29117e-07 0.0005 1.46608e-07 
251 1 0.0203239 0.0153339 0.0147047 -0.00515315 0.00467009 -0.00170173 0 0 -1.43822e-06 0.0005 1.46608e-07 
252 1 0.0213918 0.023126 0.0148204 0.00312662 -0.00671184 0.00668492 0 0 -1.43822e-06 0.0005 1.46608e-07 
253 1 0.0163741 0.0237503 0.0138502 2.64849e-05 1.77891e-05 -6.89416e-05 -1.26818e-07 1.3695e-07 -4.97764e-07 0.0005 1.46608e-07 
254 1 0.018974 0.0221102 0.0148242 0.0701107 0.0240408 0.0113756 0 0 -1.43822e-06 0.0005 1.46608e-07 
255 1 0.0208601 0.0225154 0.0155174 -0.104792 0.0451383 -0.0114971 0 0 -1.43822e-06 0.0005 1.46608e-07 
256 1 0.0213854 0.0191046 0.0159406 -0.00171659 0.0281556 -0.000370041 1.87239e-07 -8.11923e-07 5.47742e-09 0.0005 1.46608e-07 
257 1 0.0200505 0.0233096 0.01302 0.0073061 0.00877101 -0.00435321 9.19849e-05 2.38224e-05 -7.18314e-05 0.0005 1.46608e-07 
258 1 0.0266832 0.0149386 0.0125389 0.000390027 0.00693968 0.018683 -2.49646e-08 3.28629e-08 5.95713e-08 0.0005 1.46608e-07 
260 1 0.108836 0.0200055 0.00584234 7.52667e-16 -1.27686e-15 -6.97507e-15 -1.34996e-21 0 0 0.0005 1.46608e-07 
262 1 0.0211395 0.0212372 0.016117 -0.0218115 -0.0128304 0.00473633 0 0 -1.43822e-06 0.0005 1.46608e-07 
263 1 0.0229613 0.0145957 0.0146914 0.00903597 0.0110378 0.0142262 -4.13458e-06 -2.42897e-05 -1.75258e-05 0.0005 1.46608e-07 
268 1 0.0161652 0.0226722 0.0153211 0.000802486 -0.000584374 0.000463309 -2.12618e-08 -1.37806e-06 -2.86871e-07 0.0005 1.46608e-07 
269 1 0.0196671 0.0234713 0.0117292 0.00093641 0.00118895 -0.0020031 3.66862e-06 -1.33979e-06 1.20309e-06 0.0005 1.46608e-07 
270 1 0.0143568 0.0209354 0.0155224 -0.00303468 0.00256385 -0.00126435 -1.48129e-07 -1.18036e-07 1.9719e-07 0.0005 1.46608e-07 
271 1 0.0213364 0.014572 0.0128839 0.0402729 -0.188436 -0.0248137 -0.000194315 4.80913e-05 0.000128889 0.0005 1.46608e-07 
272 1 0.0186055 0.0140046 0.0129629 -0.000199457 9.42018e-05 -0.000180056 2.10348e-07 -9.3957e-08 -3.58032e-07 0.0005 1.46608e-07 
273 1 0.0226267 0.0153944 0.0153031 0.00742768 0.00254874 0.0156988 0 0 -1.43822e-06 0.0005 1.46608e-07 
274 1 0.0181155 0.0150004 0.0148395 0.000180286 0.000706398 -1.36065e-05 -1.45446e-07 -2.37494e-07 7.19526e-08 0.0005 1.46608e-07 
275 1 0.0146022 0.0155045 0.0141803 0.00162598 -0.00116695 -0.0029278 -2.22717e-07 -6.90867e-08 -5.52355e-08 0.0005 1.46608e-07 
276 1 0.0158745 0.023854 0.0147383 0.000207789 0.000180063 0.000254715 -9.66527e-08 -2.98117e-07 1.96463e-07 0.0005 1.46608e-07 
277 1 0.0228739 0.0235983 0.0144699 -0.00131098 -0.000559107 -0.00321626 -3.05283e-06 3.83905e-05 2.28961e-05 0.0005 1.46608e-07 
282 1 0.0163791 0.0152337 0.015124 0.000719607 -0.000302197 -0.00189817 1.04262e-07 -1.65236e-07 -1.05549e-06 0.0005 1.46608e-07 
283 1 0.0249558 0.0165682 0.0161492 -0.000796339 0.0150378 0.00857496 -4.63072e-09 2.48093e-08 5.31851e-09 0.0005 1.46608e-07 
284 1 0.00937694 0.00505359 0.0435188 -9.68799e-317 -9.69932e-317 9.23294e-13 0 0 0 0.0005 1.46608e-07 
285 1 0.0194745 0.0228782 0.0157348 0.0679712 0.00897795 -0.033475 0 0 -1.43822e-06 0.0005 1.46608e-07 
286 1 0.0191299 0.0210164 0.0154889 5.28925e-05 0.019777 -0.0105929 0 0 -1.43822e-06 0.0005 1.46608e-07 
288 1 0.0142085 0.0161315 0.0148526 0.00540907 -0.000989556 -0.00142222 -1.857e-07 2.03785e-07 6.92296e-07 0.0005 1.46608e-07 
289 1 0.0138744 0.0219918 0.0148526 0.00080952 0.000144943 -0.00163109 -2.68186e-07 -6.85039e-07 -7.89088e-07 0.0005 1.46608e-07 
291 1 0.0167523 0.0146891 0.0143728 0.000748616 -0.000860068 -0.00177219 1.1507e-07 -1.09242e-07 -5.75995e-07 0.0005 1.46608e-07 
293 1 0.0157833 0.0219205 0.0158889 0.00608733 0.00454241 0.000244684 3.45729e-07 -8.65143e-07 6.09429e-07 0.0005 1.46608e-07 
294 1 0.0217961 0.0151854 0.0136751 -0.00739716 0.019779 0.00555335 0.00019096 -7.97327e-05 -3.29784e-05 0.0005 1.46608e-07 
298 1 0.0178602 0.0233534 0.0110651 0.00335012 -0.00127039 -0.00883851 1.20031e-06 1.03644e-06 2.83845e-06 0.0005 1.46608e-07 
299 1 0.024947 0.0190645 0.00586966 2.61608e-15 3.48866e-16 -4.25293e-14 2.91168e-22 3.44802e-20 0 0.0005 1.46608e-07 
300 1 0.0241906 0.0232677 0.012482 0.000363058 0.00430636 -0.0196683 -2.73493e-09 -7.62026e-09 -1.27974e-08 0.0005 1.46608e-07 
