ITEM: TIMESTEP
15000000
ITEM: NUMBER OF ATOMS
128
ITEM: BOX BOUNDS ff ff ff
-0.02 0.43
-0.02 0.06
-0.02 0.07
ITEM: ATOMS id type x y z vx vy vz fx fy fz radius mass 
1 1 0.0178854 0.0234151 0.0123221 0.00364405 5.66635e-05 -0.0061468 4.72178e-06 -7.57279e-06 2.45541e-06 0.0005 1.46608e-07 
2 1 0.0181938 0.0233706 0.0137606 0.00481138 0.000624491 -1.52991e-05 -7.34988e-07 4.00758e-07 -1.15856e-06 0.0005 1.46608e-07 
4 1 0.0163593 0.0237549 0.0138878 7.87114e-05 8.67104e-05 -6.07874e-05 -2.73959e-08 2.06707e-07 3.62079e-07 0.0005 1.46608e-07 
5 1 0.0354483 0.0232179 0.0104039 0.000725756 -0.00527313 -0.0170191 -5.5579e-09 -1.47675e-08 -1.56e-08 0.0005 1.46608e-07 
11 1 0.0229197 0.022852 0.0151284 -0.0386921 -0.017444 0.0184314 6.14816e-07 8.67742e-07 -8.25073e-07 0.0005 1.46608e-07 
15 1 0.00938048 0.0183393 0.00587271 3.64201e-15 5.44986e-16 -3.69012e-14 -1.85288e-22 -7.01449e-22 0 0.0005 1.46608e-07 
16 1 0.0260148 0.0196703 0.00594114 1.76444e-14 2.83981e-15 -2.87664e-13 4.23516e-22 -9.71606e-21 0 0.0005 1.46608e-07 
17 1 0.0331385 0.0151862 0.00961371 0.00121939 -0.00462886 0.00753435 1.89558e-07 1.38408e-07 -4.23022e-07 0.0005 1.46608e-07 
18 1 0.0366849 0.0218066 0.0435188 -9.6879e-317 9.73506e-317 2.68131e-13 0 0 0 0.0005 1.46608e-07 
19 1 0.0187486 0.0232933 0.0127058 0.0026657 0.000585391 -0.00346136 2.02389e-06 -6.25712e-06 5.36294e-06 0.0005 1.46608e-07 
20 1 0.0395507 0.0164913 0.00800327 0.00163314 -0.00800034 0.00447137 3.92828e-09 1.31283e-08 -1.75798e-08 0.0005 1.46608e-07 
24 1 0.0317241 0.0167971 0.0151844 0.000322119 0.0156698 0.0104074 -5.53605e-07 -3.40853e-07 1.23271e-08 0.0005 1.46608e-07 
25 1 0.0200152 0.0241516 0.0130204 0.000513006 0.00037693 -0.0011497 -1.49249e-06 -4.40921e-07 -1.32537e-06 0.0005 1.46608e-07 
27 1 0.000591717 0.0149731 0.0435188 9.71467e-317 9.75789e-317 -8.23806e-13 0 0 0 0.0005 1.46608e-07 
28 1 0.0361009 0.0230077 0.0132092 0.00073186 0.00783572 -0.018962 -1.24952e-08 1.7966e-09 -2.24851e-08 0.0005 1.46608e-07 
31 1 0.0219449 0.0179032 0.00734984 6.40583e-05 -0.0195704 0.00469191 -6.784e-09 9.48357e-08 -4.84122e-09 0.0005 1.46608e-07 
32 1 0.0158105 0.0233021 0.0145904 -0.00772841 0.00425244 -0.00366257 5.07022e-08 -1.25509e-07 1.47e-08 0.0005 1.46608e-07 
33 1 0.0202434 0.022702 0.0140425 0.00396446 0.00263392 -0.00292452 -1.55331e-07 -2.33439e-07 5.51717e-07 0.0005 1.46608e-07 
35 1 0.0217057 0.0143189 0.0138147 0.000410701 -0.000118759 0.000726155 -7.06073e-08 -1.63577e-08 -8.23473e-08 0.0005 1.46608e-07 
37 1 0.0346082 0.0208786 0.00772073 0.0024491 -0.00498327 -0.00301132 -1.38452e-05 -1.30714e-05 -1.28683e-05 0.0005 1.46608e-07 
41 1 0.0141474 0.0224122 0.0144152 0.000332706 0.00195989 -0.000163336 -7.41384e-09 -4.92171e-08 4.25279e-08 0.0005 1.46608e-07 
43 1 0.0225604 0.0235875 0.0141664 -0.00567776 0.00118755 -0.00439849 7.99451e-09 4.82248e-09 2.34956e-08 0.0005 1.46608e-07 
44 1 0.0275359 0.0164185 0.00808672 0.000331234 -0.0163555 0.0126444 -1.85358e-09 4.57549e-10 1.28527e-08 0.0005 1.46608e-07 
47 1 0.0193711 0.0224038 0.0144295 0.00509025 0.00243631 -0.00105066 -1.16734e-06 2.41313e-07 -1.32953e-07 0.0005 1.46608e-07 
49 1 0.003617 0.0285782 0.0435188 -9.68849e-317 -9.75601e-317 2.88878e-12 0 0 0 0.0005 1.46608e-07 
52 1 0.0390182 0.0150204 0.0100031 0.000905979 -0.00668053 0.0155118 3.60773e-09 1.43747e-08 4.06093e-09 0.0005 1.46608e-07 
57 1 0.0196051 0.0193773 0.00612808 -3.5887e-14 1.61087e-14 -3.28528e-13 -1.72054e-21 -4.1862e-20 -1.90582e-21 0.0005 1.46608e-07 
59 1 0.0369931 0.0197785 0.0157362 0.0021093 0.0091806 -0.00123481 -8.75619e-09 5.70277e-10 -9.06126e-09 0.0005 1.46608e-07 
62 1 0.0206161 0.0146445 0.0121014 0.00435571 0.000751535 0.00297561 3.12458e-07 1.55059e-08 -1.14346e-06 0.0005 1.46608e-07 
63 1 0.0163642 0.0148279 0.0128838 0.00526982 -0.00184684 -0.00367442 2.53772e-08 -2.26346e-08 5.22493e-09 0.0005 1.46608e-07 
65 1 0.035763 0.0233596 0.0119543 0.000793577 0.00147388 -0.0192747 -6.57587e-09 -7.01162e-09 -1.94964e-08 0.0005 1.46608e-07 
67 1 0.0364537 0.0217987 0.0147287 5.29843e-05 0.017075 -0.0136888 -1.78222e-07 4.79007e-08 5.21799e-07 0.0005 1.46608e-07 
68 1 0.037345 0.0182954 0.0156633 2.77049e-05 0.0213679 0.00456008 -1.33051e-09 6.10745e-09 -1.074e-08 0.0005 1.46608e-07 
71 1 0.0176497 0.0234034 0.0114068 0.00293988 -0.00103084 -0.00688478 -4.30968e-07 2.18045e-08 -9.8901e-08 0.0005 1.46608e-07 
73 1 0.0176636 0.0141067 0.0132387 0.00065084 -0.000837079 0.00184595 7.2071e-09 -1.05456e-08 2.389e-08 0.0005 1.46608e-07 
74 1 0.0285412 0.0204688 0.0074727 0.000140368 -0.0201186 -0.00732049 -2.29419e-09 -1.01006e-08 7.09032e-09 0.0005 1.46608e-07 
76 1 0.0155829 0.0150657 0.0134909 0.00420872 -0.00257297 -0.00103876 1.21482e-08 -1.66678e-08 1.29622e-08 0.0005 1.46608e-07 
79 1 0.0342643 0.0195111 0.00740227 0.000489816 -0.0216052 -0.0034554 -4.71226e-09 -4.61852e-09 1.03751e-08 0.0005 1.46608e-07 
84 1 0.02979 0.0233425 0.0120403 0.000507144 0.00225924 -0.0199427 -3.42935e-09 -8.23613e-09 -1.12738e-08 0.0005 1.46608e-07 
87 1 0.0347966 0.0217308 0.00806271 0.00222883 -0.00303887 -0.00425434 6.51093e-05 4.39592e-06 1.71851e-05 0.0005 1.46608e-07 
88 1 0.0336475 0.0150146 0.0101026 0.00201763 -0.00322141 0.0103868 9.08941e-07 -1.1157e-07 3.08532e-07 0.0005 1.46608e-07 
89 1 0.0379685 0.015765 0.0142658 0.000217457 0.0134967 0.016019 -1.32049e-09 1.28607e-08 -1.91626e-09 0.0005 1.46608e-07 
90 1 0.0281527 0.0190516 0.00718605 0.00130188 -0.0194807 0.000245338 -9.38815e-09 -4.22763e-09 -1.22144e-08 0.0005 1.46608e-07 
92 1 0.0338595 0.0175158 0.00748373 -0.00124329 -0.0222742 0.0100771 -2.77889e-08 -8.38045e-08 -2.36541e-09 0.0005 1.46608e-07 
97 1 0.0193558 0.0149387 0.0130629 3.93281e-05 0.00811977 0.021328 -8.49625e-11 1.62314e-08 -6.10752e-09 0.0005 1.46608e-07 
103 1 0.0320664 0.0155487 0.0140055 0.000425874 0.00657303 0.011279 3.1824e-08 3.32181e-08 -2.80949e-08 0.0005 1.46608e-07 
106 1 0.0189689 0.023649 0.0143274 0.00419799 -0.00128785 0.00188484 3.76348e-07 -7.09326e-07 -4.8185e-07 0.0005 1.46608e-07 
108 1 0.0214483 0.0168437 0.00645098 -2.39114e-14 5.08603e-14 1.84337e-13 1.09214e-19 1.04291e-20 1.35525e-20 0.0005 1.46608e-07 
109 1 0.0233212 0.0230155 0.00981007 0.00230635 -0.00564401 -0.0127521 -7.32138e-08 -1.10813e-07 -2.40802e-07 0.0005 1.46608e-07 
110 1 0.0209786 0.0240111 0.0128987 0.000134617 -0.000254056 -0.00565031 -9.38631e-08 4.41072e-08 6.19105e-08 0.0005 1.46608e-07 
112 1 0.0307699 0.0208959 0.0153597 0.000186471 0.0192818 -0.0081542 2.77257e-08 -4.02147e-07 1.61452e-07 0.0005 1.46608e-07 
116 1 0.0202176 0.0237092 0.0140513 0.0251059 -0.00134348 -0.0683788 0 0 -1.43822e-06 0.0005 1.46608e-07 
121 1 0.0551527 0.0181697 0.00595147 -1.30048e-14 -1.76697e-14 -2.51655e-13 -1.31025e-21 -2.30419e-20 1.69407e-21 0.0005 1.46608e-07 
122 1 0.0401509 0.0189336 0.00717368 0.000126105 -0.0219059 -0.000481884 -8.36205e-10 -4.7416e-09 1.07737e-08 0.0005 1.46608e-07 
124 1 0.0151405 0.0228142 0.0151497 -0.021281 0.0124107 -0.0128449 1.06506e-07 9.77954e-08 -9.39291e-08 0.0005 1.46608e-07 
125 1 0.0397598 0.0171462 0.0076578 0.00157301 -0.00888209 0.00440496 -1.14407e-08 -5.24523e-08 1.29731e-08 0.0005 1.46608e-07 
126 1 0.0216801 0.0238681 0.0136191 -0.00103544 -0.00957804 -0.00957687 0 0 -1.43822e-06 0.0005 1.46608e-07 
128 1 0.0303903 0.00406748 0.0435188 -9.67556e-317 -9.75879e-317 -3.22607e-12 0 0 0 0.0005 1.46608e-07 
130 1 0.0254837 0.0179323 0.0158134 0.00328515 0.00520327 0.000966347 -3.31894e-06 -2.34135e-06 8.92188e-06 0.0005 1.46608e-07 
131 1 0.0359831 0.0230048 0.0098111 0.000532152 -0.00829698 -0.0180302 -6.88358e-09 -1.32157e-08 -9.96249e-09 0.0005 1.46608e-07 
133 1 0.0248024 0.0211319 0.0154266 9.97067e-06 0.019 -0.0100227 5.51569e-10 4.20151e-08 -4.07088e-08 0.0005 1.46608e-07 
135 1 0.0384021 0.0149767 0.0129371 0.000994975 0.00637564 0.0173647 -8.25348e-09 2.90525e-08 1.59691e-08 0.0005 1.46608e-07 
137 1 0.0307275 0.0188227 0.00574705 -1.48114e-14 1.38183e-16 -1.73752e-13 -5.29396e-23 8.06853e-21 0 0.0005 1.46608e-07 
138 1 0.0190371 0.0241462 0.0129599 -0.000141011 4.60728e-05 -0.000925302 3.66928e-07 1.3829e-07 3.94011e-07 0.0005 1.46608e-07 
139 1 0.0287688 0.0215474 0.00794 0.0016079 -0.0113778 -0.00742344 -6.03998e-08 -6.14268e-08 -5.00236e-08 0.0005 1.46608e-07 
141 1 0.0265525 0.0147946 0.0119456 0.00200756 0.00273001 0.0139787 -5.48272e-09 -1.16503e-09 -2.18506e-08 0.0005 1.46608e-07 
142 1 0.0409604 0.022245 0.00860371 0.00139473 -0.0124608 -0.013305 -1.76101e-08 -9.15609e-09 -1.06306e-08 0.0005 1.46608e-07 
143 1 0.0323139 0.0151124 0.013185 2.44558e-05 0.0080829 0.0203848 1.20126e-07 -1.71094e-07 -4.42611e-07 0.0005 1.46608e-07 
147 1 0.0301193 0.0229535 0.0133071 0.000303054 0.0101864 -0.019342 1.40034e-09 -9.79818e-09 -5.98756e-09 0.0005 1.46608e-07 
149 1 0.0570019 0.0175547 0.00590579 4.46026e-15 1.18815e-14 2.80766e-13 3.8401e-20 -4.64148e-20 1.48231e-21 0.0005 1.46608e-07 
150 1 0.019644 0.0234829 0.011824 1.96138e-07 0.000123571 -0.000120644 5.96194e-11 8.03862e-09 -8.19932e-09 0.0005 1.46608e-07 
151 1 0.022249 0.0149386 0.0132119 0.00536429 0.00381137 -0.00115031 -5.14329e-07 2.39434e-07 -1.17121e-06 0.0005 1.46608e-07 
157 1 0.0199877 0.023168 0.0131958 0.0021122 0.00114947 -0.00266036 -2.87519e-06 5.54348e-07 1.54604e-06 0.0005 1.46608e-07 
158 1 0.0214982 0.0162996 0.00816251 0.000200701 -0.0176183 0.0136302 4.9107e-06 8.84979e-06 -9.95108e-06 0.0005 1.46608e-07 
160 1 0.036782 0.0207365 0.0154045 0.000546736 0.0173454 -0.0086777 -2.62232e-09 3.80041e-09 -1.392e-08 0.0005 1.46608e-07 
161 1 0.0221348 0.00230077 0.0435188 9.74157e-317 -9.69799e-317 9.23294e-13 0 0 0 0.0005 1.46608e-07 
165 1 0.0188419 0.0209196 0.0155493 0.000147036 0.0203961 -0.00940669 -1.50128e-09 -1.98467e-10 -1.82932e-08 0.0005 1.46608e-07 
166 1 0.0312931 0.0184502 0.0157706 0.000553465 0.0204911 0.0037846 3.85392e-08 -1.12555e-07 2.4093e-08 0.0005 1.46608e-07 
167 1 0.0194762 0.0243571 0.0138367 0.001672 -0.000630467 0.000673755 2.16064e-07 -4.25938e-08 -1.01189e-07 0.0005 1.46608e-07 
170 1 0.021002 0.0149604 0.0101327 0.000465632 -0.00618354 0.0194763 -2.92191e-09 7.33723e-09 1.25809e-08 0.0005 1.46608e-07 
171 1 0.0171964 0.0242136 0.0135901 4.09075e-05 0.000101213 0.000115334 1.77855e-07 1.20517e-07 2.02842e-07 0.0005 1.46608e-07 
173 1 0.024326 0.0219963 0.0149562 0.00185891 0.00334796 -0.000202503 0.0296631 -0.00572079 -0.00461398 0.0005 1.46608e-07 
174 1 0.0229182 0.0220594 0.00859667 0.000247867 -0.00798639 -0.00989589 -1.3529e-09 -4.90237e-09 -1.44066e-09 0.0005 1.46608e-07 
179 1 0.067984 0.0193424 0.00575613 3.89809e-15 7.52848e-15 2.61625e-13 2.18376e-20 -1.36319e-20 0 0.0005 1.46608e-07 
185 1 0.0334916 0.0162983 0.00818443 0.00175689 -0.0131259 0.0124649 -1.3645e-06 2.94544e-06 6.68579e-07 0.0005 1.46608e-07 
186 1 0.0318903 0.0161425 0.0146533 0.000265337 0.013811 0.0141544 2.64703e-07 -1.01909e-07 -1.7936e-07 0.0005 1.46608e-07 
187 1 0.0310981 0.0193617 0.0158055 0.000972402 0.0176344 -0.00226461 -5.36071e-08 1.15076e-07 -1.24197e-07 0.0005 1.46608e-07 
191 1 0.0183933 0.0225308 0.0142649 0.0046086 0.000282955 0.000589835 -1.68697e-06 2.74005e-07 -1.94068e-07 0.0005 1.46608e-07 
193 1 0.0245476 0.0198163 0.00585259 2.60742e-15 4.23328e-16 -4.25291e-14 1.19114e-21 -9.1602e-21 0 0.0005 1.46608e-07 
194 1 0.0303986 0.0220519 0.0145808 0.000749082 0.0130276 -0.0132154 7.30232e-09 -8.82971e-09 -2.57341e-09 0.0005 1.46608e-07 
197 1 0.0325506 0.0148052 0.0119516 0.00407606 0.00224121 0.0100593 -3.16707e-08 5.75338e-08 9.75523e-08 0.0005 1.46608e-07 
200 1 0.0212549 0.0155281 0.00901371 0.000554782 -0.012808 0.0199781 3.44001e-09 -1.2748e-07 1.63482e-07 0.0005 1.46608e-07 
205 1 0.0327629 0.0148119 0.0109236 0.000207022 -0.00329741 0.0214567 1.8808e-09 1.14799e-08 2.86092e-09 0.0005 1.46608e-07 
206 1 0.0188086 0.0259868 0.0227347 -0.151591 0.132738 0.0447626 0 0 -1.43822e-06 0.0005 1.46608e-07 
215 1 0.026935 0.0188837 0.00598981 1.43031e-14 2.30413e-15 -2.33189e-13 -3.04402e-22 -1.05879e-22 0 0.0005 1.46608e-07 
225 1 0.0214615 0.014742 0.0126268 0.00253399 -7.50006e-05 0.005222 1.04192e-07 5.12238e-07 4.54823e-07 0.0005 1.46608e-07 
226 1 0.0377109 0.0168625 0.0151693 0.00153009 0.0145807 0.00763313 -1.02769e-08 3.15701e-08 7.18381e-09 0.0005 1.46608e-07 
227 1 0.0269034 0.0148717 0.0104659 0.000767908 -0.00655083 0.0183465 -8.7495e-08 9.35648e-08 -9.05833e-08 0.0005 1.46608e-07 
229 1 0.0352123 0.0227977 0.00952301 0.00137594 -0.00977357 -0.0154601 -2.05265e-08 -2.72635e-08 -4.22209e-08 0.0005 1.46608e-07 
232 1 0.0221996 0.00109062 0.0435188 9.58743e-317 9.68145e-317 4.97437e-14 0 0 0 0.0005 1.46608e-07 
235 1 0.0258735 0.0183979 0.0166844 2.00074e-06 -2.27994e-05 7.42315e-06 1.28914e-07 -1.95999e-07 -1.38591e-07 0.0005 1.46608e-07 
237 1 0.0349362 0.022202 0.00856324 0.000507595 -0.00696586 -0.00933063 0.000136114 1.29333e-05 2.46204e-05 0.0005 1.46608e-07 
240 1 0.023044 0.0226792 0.00915481 0.00302807 -0.00805443 -0.00994357 -5.43753e-08 -7.75525e-08 -1.33775e-07 0.0005 1.46608e-07 
241 1 0.0271941 0.015311 0.00937125 0.000241508 -0.0096221 0.0177005 -2.54264e-09 3.09771e-09 1.72349e-08 0.0005 1.46608e-07 
242 1 0.0252886 0.0188655 0.0160219 0.00306673 0.00462767 0.000645313 3.01567e-07 -9.41286e-07 4.08767e-08 0.0005 1.46608e-07 
247 1 0.039339 0.0158944 0.00863494 0.000834006 -0.0122181 0.0144723 -5.89413e-09 -1.57543e-08 2.61699e-08 0.0005 1.46608e-07 
252 1 0.0186234 0.0218475 0.0149577 0.00503553 -2.30419e-05 0.00132312 1.99475e-07 8.80691e-07 -5.40992e-08 0.0005 1.46608e-07 
253 1 0.0240469 0.0226596 0.0143489 0.00534958 0.00319392 -0.00846519 0.0566363 0.516283 -0.115691 0.0005 1.46608e-07 
256 1 0.023619 0.0234116 0.0113117 0.000634633 0.000401156 -0.0132273 -2.7955e-09 -7.68546e-09 2.68124e-08 0.0005 1.46608e-07 
257 1 0.0238043 0.0227227 0.00926565 0.00301613 -0.00186427 -0.00352342 -1.01618e-07 2.74807e-08 -6.00901e-09 0.0005 1.46608e-07 
258 1 0.0332587 0.0155787 0.00898489 0.000810299 -0.00719331 0.00979763 -2.05109e-07 2.46239e-07 -3.12225e-07 0.0005 1.46608e-07 
260 1 0.108836 0.0200055 0.00584234 7.67147e-16 -1.27679e-15 -6.97331e-15 -1.05879e-21 -5.29396e-23 -2.11758e-22 0.0005 1.46608e-07 
263 1 0.0204735 0.0219617 0.014855 -0.0013124 0.0206636 -0.0179496 7.67479e-08 2.24877e-07 -2.29902e-07 0.0005 1.46608e-07 
268 1 0.0186235 0.0139999 0.0129706 -0.000106428 0.00126729 -0.00210413 1.83577e-10 -1.76585e-08 2.99225e-08 0.0005 1.46608e-07 
269 1 0.0279073 0.0177367 0.00742778 0.00010388 -0.0213478 0.00613769 -1.42399e-09 -4.41544e-09 1.12334e-08 0.0005 1.46608e-07 
270 1 0.025591 0.0204809 0.0157028 0.00105978 0.00113559 -0.000853755 7.13292e-07 -9.6664e-07 6.43716e-08 0.0005 1.46608e-07 
271 1 0.0295362 0.023346 0.0108587 0.00106814 -0.0011291 -0.0137093 8.74158e-09 1.13775e-08 4.46489e-08 0.0005 1.46608e-07 
272 1 0.025766 0.019689 0.0165902 0.00042094 0.000472268 0.000904228 7.28057e-08 3.99239e-08 4.17473e-08 0.0005 1.46608e-07 
274 1 0.0180469 0.0240864 0.0130798 -4.25154e-05 2.90685e-05 0.000180832 1.73732e-08 3.62188e-07 -2.28844e-07 0.0005 1.46608e-07 
275 1 0.0250467 0.0198036 0.0159051 0.00296243 0.00344277 -0.00115892 -3.55491e-08 -1.10047e-06 1.37586e-07 0.0005 1.46608e-07 
277 1 0.0212515 0.0152053 0.0137257 0.00614108 0.00324722 0.00538296 3.38986e-09 -6.28347e-09 -4.31626e-08 0.0005 1.46608e-07 
282 1 0.0203423 0.0149984 0.0133646 0.00121681 0.00701542 0.0156165 -1.21233e-08 4.22423e-08 3.88309e-08 0.0005 1.46608e-07 
284 1 0.00937694 0.00505359 0.0435188 -9.68799e-317 -9.69932e-317 9.23294e-13 0 0 0 0.0005 1.46608e-07 
288 1 0.0190951 0.0229699 0.0135998 0.00407178 0.00118041 -0.000953173 -2.13198e-06 -9.71697e-07 -1.60413e-07 0.0005 1.46608e-07 
291 1 0.0186237 0.0234719 0.0117491 0.00303573 -0.000790007 -0.00315646 -4.52708e-05 -6.60049e-06 -3.70501e-05 0.0005 1.46608e-07 
294 1 0.020849 0.0141381 0.0131367 -0.00747437 0.000876662 -0.00525359 5.80402e-07 7.53334e-07 5.77664e-07 0.0005 1.46608e-07 
299 1 0.0254808 0.018723 0.00589902 -2.07809e-14 -3.36943e-15 3.38791e-13 -6.61744e-22 1.39645e-20 0 0.0005 1.46608e-07 
300 1 0.0315303 0.0175445 0.0155537 0.000494426 0.0193344 0.00684614 -4.01903e-07 5.22025e-07 6.64838e-10 0.0005 1.46608e-07 
