ITEM: TIMESTEP
22800000
ITEM: NUMBER OF ATOMS
108
ITEM: BOX BOUNDS ff ff ff
-0.02 0.43
-0.02 0.06
-0.02 0.07
ITEM: ATOMS id type x y z vx vy vz fx fy fz radius mass 
1 1 0.0204327 0.0234304 0.0114981 0.00163263 -0.00124463 -0.0120246 -4.79367e-09 -6.74974e-09 -2.66052e-08 0.0005 1.46608e-07 
2 1 0.0236001 0.0156343 0.0143665 0.00499397 0.00410581 0.00385217 -5.13149e-08 8.71787e-08 -4.99044e-07 0.0005 1.46608e-07 
4 1 0.0188337 0.0186381 0.00719172 0.00115903 -0.0171903 0.000203971 -2.44239e-07 -1.10115e-06 1.403e-07 0.0005 1.46608e-07 
5 1 0.0552425 0.0189586 0.00589144 -9.84479e-15 -1.33741e-14 -1.90504e-13 -3.57342e-22 1.85288e-22 0 0.0005 1.46608e-07 
15 1 0.00938048 0.0183393 0.00587271 3.64497e-15 5.4102e-16 -3.6901e-14 -1.08526e-21 6.2204e-22 0 0.0005 1.46608e-07 
16 1 0.0260391 0.0196534 0.00594246 2.09854e-14 3.38171e-15 -3.42138e-13 -1.98523e-22 1.8595e-21 0 0.0005 1.46608e-07 
17 1 0.0420295 0.0156925 0.00890926 0.000192819 -0.0129362 0.0167761 -1.09405e-09 4.64942e-09 1.10056e-08 0.0005 1.46608e-07 
18 1 0.0366849 0.0218066 0.0435188 -9.6879e-317 9.73506e-317 2.68131e-13 0 0 0 0.0005 1.46608e-07 
20 1 0.0471947 0.0148772 0.0122872 9.62884e-05 0.0036371 0.0212817 2.87051e-11 1.15313e-08 1.9242e-09 0.0005 1.46608e-07 
24 1 0.0404209 0.0168044 0.0151555 0.00190256 0.00710126 0.00593713 4.39692e-06 -2.6814e-06 -2.59486e-06 0.0005 1.46608e-07 
25 1 0.0339249 0.0173116 0.00624552 -1.79117e-15 -9.36155e-15 -2.80538e-14 -9.80904e-19 -8.67679e-20 6.11981e-20 0.0005 1.46608e-07 
27 1 0.000591717 0.0149731 0.0435188 9.71467e-317 9.75789e-317 -8.23806e-13 0 0 0 0.0005 1.46608e-07 
28 1 0.044499 0.023349 0.0119086 3.89978e-05 0.00350757 -0.0220459 -2.88507e-10 -1.10601e-08 -5.3542e-09 0.0005 1.46608e-07 
32 1 0.0364748 0.0208476 0.00623738 4.37151e-15 -1.48266e-14 6.83465e-14 -1.85288e-22 -1.16467e-21 -2.11758e-22 0.0005 1.46608e-07 
33 1 0.030096 0.0157791 0.00870677 8.58105e-05 -0.0150308 0.0166911 -6.7645e-10 4.95892e-09 1.31327e-08 0.0005 1.46608e-07 
37 1 0.0431678 0.0203793 0.00734014 0.000471471 -0.0186633 -0.00546229 8.7645e-09 -2.64962e-08 1.48353e-08 0.0005 1.46608e-07 
41 1 0.0260482 0.0231289 0.0100161 0.000694194 -0.00644615 -0.0184194 2.02822e-09 -7.3765e-09 1.43751e-08 0.0005 1.46608e-07 
44 1 0.034411 0.0167726 0.0151241 0.00169355 0.0100679 0.00656099 5.70468e-09 -5.96879e-08 -3.62495e-08 0.0005 1.46608e-07 
47 1 0.0194393 0.0213876 0.00794027 0.000929734 -0.015824 -0.0086123 -1.48264e-08 -2.82941e-08 -1.26636e-08 0.0005 1.46608e-07 
49 1 0.003617 0.0285782 0.0435188 -9.68849e-317 -9.75601e-317 2.88878e-12 0 0 0 0.0005 1.46608e-07 
52 1 0.0860181 0.0183082 0.00577269 -1.22658e-15 3.67084e-14 1.26768e-13 -2.46483e-20 -8.47033e-22 0 0.0005 1.46608e-07 
57 1 0.0177449 0.0174882 0.00600758 2.62539e-15 1.02255e-14 2.1282e-14 2.30287e-21 2.22346e-21 -1.48231e-21 0.0005 1.46608e-07 
59 1 0.0452579 0.0218729 0.0147536 -4.901e-05 0.0161611 -0.0134645 -5.46046e-09 2.11816e-10 -1.41735e-08 0.0005 1.46608e-07 
62 1 0.0234733 0.0227448 0.0092157 0.000493774 -0.00534388 -0.00897392 2.69352e-07 5.4931e-07 8.68702e-07 0.0005 1.46608e-07 
63 1 0.0205274 0.0140649 0.0131529 -0.000493266 0.000542532 -0.00147095 1.30806e-08 -1.27578e-08 3.34867e-08 0.0005 1.46608e-07 
65 1 0.0441701 0.0231523 0.0104904 0.000208853 -0.00306099 -0.013959 -1.51802e-09 -4.98209e-11 -3.84534e-09 0.0005 1.46608e-07 
67 1 0.0447251 0.0230538 0.0130651 0.000447516 0.00659395 -0.01852 1.21234e-09 -3.40508e-08 3.44678e-07 0.0005 1.46608e-07 
68 1 0.0452523 0.0173614 0.00620617 -3.07853e-15 -1.74722e-14 -1.20236e-13 3.58996e-20 -7.80858e-21 4.23516e-22 0.0005 1.46608e-07 
73 1 0.0349285 0.0181778 0.00592251 6.36042e-16 6.72035e-15 2.00032e-14 1.55113e-20 3.33519e-21 -1.48231e-21 0.0005 1.46608e-07 
74 1 0.0361498 0.0160021 0.00845969 0.00411858 0.00225227 -0.00444833 -4.37565e-06 2.33859e-06 -2.39655e-06 0.0005 1.46608e-07 
76 1 0.0293766 0.014792 0.0115865 0.00366633 -0.00154982 -0.00125169 2.42438e-08 2.37434e-08 -1.31677e-07 0.0005 1.46608e-07 
79 1 0.054387 0.0178804 0.00601135 -1.3005e-14 -1.76675e-14 -2.51655e-13 -9.52912e-22 1.45584e-22 0 0.0005 1.46608e-07 
84 1 0.0375286 0.0216402 0.00805515 0.00135351 -0.0122923 -0.0088064 -4.7706e-09 -9.5199e-09 1.30636e-08 0.0005 1.46608e-07 
87 1 0.043358 0.0211622 0.00772227 0.000286636 -0.0181586 -0.0108684 -7.38581e-10 1.64896e-08 1.25983e-08 0.0005 1.46608e-07 
88 1 0.0429905 0.0193735 0.00720039 0.000789024 -0.0189019 -0.00231063 -5.92585e-06 1.8332e-06 -7.96608e-07 0.0005 1.46608e-07 
89 1 0.0461189 0.0179774 0.0156403 0.00020629 0.0205806 0.0050996 -9.75426e-10 1.00794e-08 -7.64397e-09 0.0005 1.46608e-07 
90 1 0.0356336 0.0149257 0.0102924 0.000569136 -0.00479611 0.0188405 -3.16837e-09 7.56026e-09 1.5296e-08 0.0005 1.46608e-07 
92 1 0.0427959 0.0185902 0.00721296 0.00145382 -0.0149805 0.00302307 3.99763e-06 1.01566e-05 -8.54139e-06 0.0005 1.46608e-07 
97 1 0.0229537 0.0151986 0.0137402 0.00377815 0.00207219 0.00617944 -5.67746e-09 -1.05152e-07 -2.00335e-07 0.0005 1.46608e-07 
103 1 0.0413753 0.0148089 0.01166 3.41893e-05 0.000348074 0.0219386 6.35066e-10 1.26676e-08 3.55419e-09 0.0005 1.46608e-07 
108 1 0.0214483 0.0168437 0.00645098 -2.38236e-14 5.08751e-14 1.84344e-13 -1.24673e-20 -1.76077e-19 4.70103e-20 0.0005 1.46608e-07 
109 1 0.0309534 0.0192849 0.00721729 7.37297e-05 -0.0219869 -0.00235086 -9.00008e-11 -4.4921e-09 1.11158e-08 0.0005 1.46608e-07 
112 1 0.039048 0.0223277 0.0141149 0.00115419 0.0122101 -0.014642 2.71086e-09 -1.42308e-08 -8.95027e-09 0.0005 1.46608e-07 
121 1 0.0586827 0.0172628 0.00598816 1.03806e-14 -2.15372e-14 -2.65e-13 1.78671e-21 -1.87935e-21 0 0.0005 1.46608e-07 
122 1 0.0792478 0.0194315 0.00576454 1.1879e-14 4.015e-14 1.70239e-13 2.05458e-19 -3.81165e-20 -4.44692e-21 0.0005 1.46608e-07 
124 1 0.0155109 0.022978 0.0135954 0.00556383 0.00167798 -0.00496647 1.92794e-09 5.96553e-09 9.12684e-09 0.0005 1.46608e-07 
125 1 0.0474399 0.0148405 0.0112665 0.000600986 -2.87299e-05 0.0188238 -5.92569e-09 8.56661e-09 2.21373e-08 0.0005 1.46608e-07 
128 1 0.0303903 0.00406748 0.0435188 -9.67556e-317 -9.75879e-317 -3.22607e-12 0 0 0 0.0005 1.46608e-07 
130 1 0.0330283 0.0224866 0.0141436 0.00135476 0.0114084 -0.0147167 -4.49561e-09 -5.07497e-09 -1.67837e-08 0.0005 1.46608e-07 
131 1 0.0477304 0.0151023 0.00997983 0.000351743 -0.00759957 0.0196683 -3.85208e-09 7.37756e-09 9.77662e-09 0.0005 1.46608e-07 
133 1 0.0226986 0.01594 0.0146727 0.00395081 0.00267147 0.00270352 -8.9788e-11 -2.07163e-07 -1.70354e-07 0.0005 1.46608e-07 
135 1 0.0465406 0.0164429 0.0149039 7.16277e-05 0.0171667 0.0138675 -6.49937e-10 1.0698e-08 -5.78459e-09 0.0005 1.46608e-07 
137 1 0.0473953 0.0193073 0.0059321 4.73744e-15 -1.01791e-14 -1.05707e-13 7.76888e-21 -1.64113e-21 4.23516e-22 0.0005 1.46608e-07 
139 1 0.0368214 0.0188366 0.00735867 -0.000187811 -0.0221045 -0.0025711 2.26239e-08 -7.02786e-09 2.37123e-08 0.0005 1.46608e-07 
141 1 0.0333367 0.0211356 0.0151829 9.84051e-05 0.0192413 -0.0101734 -2.64705e-10 -2.14711e-09 -1.15927e-08 0.0005 1.46608e-07 
142 1 0.0479568 0.0155165 0.00906 6.34192e-05 -0.0134817 0.0175514 -5.50961e-10 7.25131e-09 9.87899e-09 0.0005 1.46608e-07 
143 1 0.0415908 0.0149056 0.0105792 0.00312123 -0.00265501 0.0213282 -3.10173e-07 3.76278e-07 -3.37988e-07 0.0005 1.46608e-07 
147 1 0.0385021 0.0233529 0.0119513 0.000175056 0.00230744 -0.0209363 2.11891e-10 -9.26915e-09 -7.62434e-09 0.0005 1.46608e-07 
149 1 0.0584376 0.0191695 0.00582359 8.15262e-15 -1.6838e-14 -2.07263e-13 -1.92501e-20 -1.0257e-20 -2.11758e-22 0.0005 1.46608e-07 
150 1 0.0194944 0.0241078 0.0129432 -5.24719e-05 0.000792116 -0.000521601 -1.1165e-09 1.01167e-08 -8.53562e-09 0.0005 1.46608e-07 
157 1 0.0175342 0.0146193 0.0119421 -2.24801e-06 0.00122204 -0.00202885 -1.59377e-11 -1.92438e-08 3.19509e-08 0.0005 1.46608e-07 
158 1 0.020084 0.0201843 0.0061153 5.51682e-15 -2.47658e-15 5.04898e-14 1.95876e-21 3.01755e-21 0 0.0005 1.46608e-07 
160 1 0.0449477 0.0226779 0.0138956 0.000889343 0.0101186 -0.0142924 -4.57149e-08 1.55656e-07 -3.5516e-07 0.0005 1.46608e-07 
161 1 0.0221348 0.00230077 0.0435188 9.74157e-317 -9.69799e-317 9.23294e-13 0 0 0 0.0005 1.46608e-07 
165 1 0.201805 0.0186174 0.00570934 -3.8561e-20 4.0743e-22 8.61844e-22 0 0 0 0.0005 1.46608e-07 
166 1 0.0401442 0.0179059 0.0155858 0.00257333 0.0123902 0.00318569 -5.40918e-06 1.4221e-06 -3.90581e-07 0.0005 1.46608e-07 
167 1 0.0274435 0.0208974 0.0154157 0.00153758 0.012452 -0.00600735 4.48415e-09 -7.46269e-09 -6.77211e-09 0.0005 1.46608e-07 
173 1 0.0830234 0.0186618 0.00583976 1.15405e-14 3.23765e-14 -1.39058e-13 1.64774e-20 1.18585e-20 3.59989e-21 0.0005 1.46608e-07 
174 1 0.026534 0.0233379 0.0121034 0.000354888 0.00438632 -0.0201617 4.88065e-07 -1.3793e-06 1.06668e-05 0.0005 1.46608e-07 
179 1 0.067984 0.0193424 0.00575613 3.90879e-15 7.53015e-15 2.61625e-13 1.73278e-20 -2.18243e-20 4.23516e-22 0.0005 1.46608e-07 
185 1 0.0425433 0.0176002 0.00749709 0.000284947 -0.020203 0.00728025 -3.44103e-09 -3.51691e-09 1.20784e-08 0.0005 1.46608e-07 
186 1 0.0405949 0.0162521 0.0147056 0.000708677 0.00986353 0.00994048 -8.61367e-07 6.04175e-07 6.87011e-07 0.0005 1.46608e-07 
187 1 0.0395238 0.0205322 0.015533 0.00297494 0.010462 -0.00488141 -2.37842e-06 3.3367e-07 5.35652e-08 0.0005 1.46608e-07 
191 1 0.0270481 0.0223593 0.0141234 6.86469e-05 0.0138295 -0.0170607 -8.65125e-10 -5.52145e-09 -1.15484e-08 0.0005 1.46608e-07 
193 1 0.0253029 0.02045 0.00590518 -2.07806e-14 -3.34681e-15 3.38791e-13 9.26442e-23 -1.77182e-21 0 0.0005 1.46608e-07 
194 1 0.0386952 0.0231251 0.0129637 0.000839786 0.00610825 -0.0198697 -6.60294e-09 2.64379e-08 -1.13896e-08 0.0005 1.46608e-07 
197 1 0.0417698 0.0151254 0.00983775 0.000439915 -0.0093906 0.018812 3.6245e-07 -6.44442e-08 3.09496e-07 0.0005 1.46608e-07 
200 1 0.0284163 0.0168191 0.015154 0.000239415 0.0181208 0.0113332 -1.94831e-09 1.04428e-08 -6.1298e-09 0.0005 1.46608e-07 
205 1 0.0383457 0.0197753 0.00590075 6.09162e-15 -2.89776e-14 1.43226e-13 1.93679e-19 5.14573e-20 1.05879e-21 0.0005 1.46608e-07 
215 1 0.026935 0.0188837 0.00598981 1.43032e-14 2.30445e-15 -2.33189e-13 1.58819e-22 -6.3362e-22 0 0.0005 1.46608e-07 
225 1 0.0305324 0.0175287 0.00746982 0.000112395 -0.0208753 0.00719757 -1.19317e-09 -1.74555e-09 1.33667e-08 0.0005 1.46608e-07 
226 1 0.0458661 0.0192873 0.0158035 0.00131708 0.0098448 -0.0012452 1.87004e-08 -4.90958e-08 8.5086e-09 0.0005 1.46608e-07 
227 1 0.0338755 0.0192452 0.0158172 0.00206469 0.0126345 0.00112679 5.39994e-09 -5.63544e-08 -2.95998e-08 0.0005 1.46608e-07 
229 1 0.0438722 0.0227569 0.0093752 0.000121259 -0.0104044 -0.0201714 -1.01548e-09 -1.1975e-08 1.25436e-09 0.0005 1.46608e-07 
232 1 0.0221996 0.00109062 0.0435188 9.58743e-317 9.68145e-317 4.97437e-14 0 0 0 0.0005 1.46608e-07 
237 1 0.0436502 0.0220104 0.00834525 0.000713828 -0.0142022 -0.0122728 -6.56932e-09 -2.09937e-08 -7.33113e-09 0.0005 1.46608e-07 
241 1 0.0341387 0.0176341 0.0154539 0.00135917 0.0213243 0.00421909 4.30775e-08 1.12961e-07 -7.9387e-09 0.0005 1.46608e-07 
242 1 0.0327045 0.0230973 0.0130017 0.000419557 0.00618549 -0.013413 1.44645e-09 -7.58947e-09 -2.4814e-09 0.0005 1.46608e-07 
247 1 0.0469075 0.0152449 0.013499 0.00136467 0.00583676 0.0165565 6.12137e-09 3.41618e-08 -2.66831e-09 0.0005 1.46608e-07 
252 1 0.0557897 0.0172859 0.0059806 9.79434e-15 1.33414e-14 1.89991e-13 -3.30608e-20 3.89106e-21 1.48231e-21 0.0005 1.46608e-07 
253 1 0.0895649 0.0187731 0.00575225 -1.28132e-14 1.91523e-14 2.53776e-13 2.15345e-19 8.46768e-20 4.44692e-21 0.0005 1.46608e-07 
256 1 0.0317296 0.022292 0.00862287 0.000252512 -0.0137532 -0.0151804 -9.04461e-10 -1.20717e-08 1.48552e-09 0.0005 1.46608e-07 
257 1 0.0313838 0.0212418 0.00773925 0.00183909 -0.0127976 -0.00686463 -4.53881e-09 -4.04546e-08 6.15436e-09 0.0005 1.46608e-07 
258 1 0.0422707 0.0164825 0.00804398 0.00149989 -0.0128328 0.00935078 -9.37447e-12 4.27706e-08 -4.21441e-08 0.0005 1.46608e-07 
260 1 0.108836 0.0200055 0.00584234 7.5313e-16 -1.27686e-15 -6.97502e-15 0 0 0 0.0005 1.46608e-07 
268 1 0.0258288 0.0227313 0.0092201 0.0019271 -0.00647308 -0.0106341 -4.71883e-10 2.00454e-08 1.46057e-08 0.0005 1.46608e-07 
269 1 0.0354122 0.0148499 0.0114439 0.000986612 0.00122103 0.0237545 1.8066e-08 7.36763e-10 9.76597e-08 0.0005 1.46608e-07 
270 1 0.0321453 0.0232622 0.0103916 0.0010128 -0.00515238 -0.0187297 -6.8261e-09 -1.38391e-08 -1.20608e-08 0.0005 1.46608e-07 
271 1 0.0373143 0.0209119 0.00767596 0.00157011 -0.0157411 -0.00648639 -5.37955e-09 -1.86476e-08 2.81424e-09 0.0005 1.46608e-07 
274 1 0.0211644 0.0234314 0.0122014 -0.000233753 6.91337e-05 0.000316812 4.83049e-06 -2.89835e-06 5.33733e-06 0.0005 1.46608e-07 
275 1 0.0324699 0.0233654 0.0117084 0.00106526 0.00213233 -0.0186895 -2.46472e-09 -3.13287e-08 -2.01894e-08 0.0005 1.46608e-07 
277 1 0.0279829 0.0186099 0.0158013 0.00100027 0.0184954 0.00150698 -1.49606e-08 1.16668e-07 6.11776e-09 0.0005 1.46608e-07 
284 1 0.00937694 0.00505359 0.0435188 -9.68799e-317 -9.69932e-317 9.23294e-13 0 0 0 0.0005 1.46608e-07 
288 1 0.0457039 0.018685 0.00600217 -6.97806e-15 -3.90027e-14 -2.68502e-13 -3.1102e-22 -2.38228e-22 0 0.0005 1.46608e-07 
291 1 0.0295233 0.0148077 0.0109106 0.0017506 -0.00291529 0.00898763 1.175e-08 4.54573e-08 -1.80125e-07 0.0005 1.46608e-07 
294 1 0.0239893 0.0191578 0.00594089 -8.43037e-15 -1.73214e-14 -5.67606e-14 -6.18863e-20 2.02229e-20 2.75286e-21 0.0005 1.46608e-07 
299 1 0.0254808 0.018723 0.00589902 -2.07729e-14 -3.33359e-15 3.38792e-13 -3.45166e-20 1.80636e-19 -4.23516e-22 0.0005 1.46608e-07 
300 1 0.0402766 0.0172974 0.0154088 0.00200256 0.00630165 0.00268674 5.95227e-06 -1.79256e-06 -2.06318e-06 0.0005 1.46608e-07 
