ITEM: TIMESTEP
20600000
ITEM: NUMBER OF ATOMS
109
ITEM: BOX BOUNDS ff ff ff
-0.02 0.43
-0.02 0.06
-0.02 0.07
ITEM: ATOMS id type x y z vx vy vz fx fy fz radius mass 
1 1 0.0189367 0.0241063 0.0129148 0.00180128 5.92649e-05 0.0012842 -2.88215e-05 -3.21845e-07 -7.17249e-07 0.0005 1.46608e-07 
2 1 0.0175473 0.0216331 0.0151201 -0.000118276 0.0252622 -0.0175796 -1.4772e-09 9.89948e-08 -9.88844e-08 0.0005 1.46608e-07 
4 1 0.0208363 0.0141013 0.0132148 -0.000474557 -0.000719304 0.00142023 -6.9e-09 -1.15563e-08 2.31499e-08 0.0005 1.46608e-07 
5 1 0.0552425 0.0189586 0.00589144 -9.84477e-15 -1.33745e-14 -1.90504e-13 -7.41154e-22 5.4263e-22 2.11758e-22 0.0005 1.46608e-07 
15 1 0.00938048 0.0183393 0.00587271 3.64434e-15 5.53005e-16 -3.69009e-14 2.2764e-21 -5.67446e-21 2.11758e-22 0.0005 1.46608e-07 
16 1 0.0260148 0.0196703 0.00594114 1.76437e-14 2.84643e-15 -2.87664e-13 -1.98523e-21 8.02034e-21 0 0.0005 1.46608e-07 
17 1 0.0397976 0.0231726 0.0128735 0.000987305 0.00531379 -0.0176346 -2.5686e-09 -1.06049e-08 -1.80768e-08 0.0005 1.46608e-07 
18 1 0.0366849 0.0218066 0.0435188 -9.6879e-317 9.73506e-317 2.68131e-13 0 0 0 0.0005 1.46608e-07 
20 1 0.0447213 0.0222168 0.0085278 0.00133595 -0.0100942 -0.012209 4.45914e-07 6.70082e-07 5.39879e-07 0.0005 1.46608e-07 
24 1 0.0379347 0.0189534 0.00726702 0.000320413 -0.0221482 0.000236513 7.04984e-09 -4.92673e-08 3.09222e-09 0.0005 1.46608e-07 
25 1 0.0339249 0.0173116 0.00624552 -6.93613e-16 -9.48193e-15 -2.80482e-14 -1.27011e-18 -3.16049e-20 5.20925e-20 0.0005 1.46608e-07 
27 1 0.000591717 0.0149731 0.0435188 9.71467e-317 9.75789e-317 -8.23806e-13 0 0 0 0.0005 1.46608e-07 
28 1 0.0424028 0.0147701 0.0116789 5.68775e-06 0.000557547 0.0208023 -2.23905e-09 1.0288e-08 -5.36576e-09 0.0005 1.46608e-07 
32 1 0.0209612 0.0226841 0.00922601 0.000918946 -0.0110231 -0.015098 -1.55738e-09 -5.14045e-08 -6.38747e-08 0.0005 1.46608e-07 
33 1 0.0281609 0.022191 0.0143357 0.000807852 0.0138425 -0.0154404 -1.16668e-08 6.44884e-09 -1.83372e-08 0.0005 1.46608e-07 
37 1 0.0414272 0.0171406 0.0153181 0.00016 0.0193561 0.00988693 -9.30801e-10 8.66208e-09 -5.50364e-09 0.0005 1.46608e-07 
41 1 0.0234552 0.0171785 0.0155291 0.00019096 0.0201726 0.00932445 8.93535e-08 -1.66524e-07 -7.55778e-08 0.0005 1.46608e-07 
44 1 0.0324893 0.0213255 0.00781849 0.00132401 -0.00569175 -0.00381281 -1.15065e-08 -4.8529e-08 -6.69053e-08 0.0005 1.46608e-07 
47 1 0.018208 0.0141403 0.0127958 0.00458472 -0.00182742 0.00198148 -3.79686e-09 -6.96883e-09 2.13305e-08 0.0005 1.46608e-07 
49 1 0.003617 0.0285782 0.0435188 -9.68849e-317 -9.75601e-317 2.88878e-12 0 0 0 0.0005 1.46608e-07 
52 1 0.0443035 0.0204257 0.00740397 0.000475519 -0.0119584 -0.00483797 1.76601e-06 -1.60345e-06 -7.24587e-07 0.0005 1.46608e-07 
57 1 0.0177449 0.0174882 0.00600758 2.6252e-15 1.0225e-14 2.12822e-14 -7.41154e-22 9.52912e-22 -2.11758e-22 0.0005 1.46608e-07 
59 1 0.0432137 0.0160579 0.00842736 0.000823209 -0.0133984 0.0141409 -8.49004e-09 -5.87518e-09 2.02659e-08 0.0005 1.46608e-07 
62 1 0.0219454 0.0232855 0.0129044 -0.00290819 0.000638814 -0.00039204 0 0 -1.43822e-06 0.0005 1.46608e-07 
63 1 0.0196813 0.0176134 0.00741969 0.000854708 -0.01752 0.00612336 5.61469e-07 3.44361e-06 -1.93567e-06 0.0005 1.46608e-07 
65 1 0.0422453 0.0148885 0.0125913 0.000594196 0.00218048 0.0145042 5.45535e-09 -2.90025e-09 -2.79702e-08 0.0005 1.46608e-07 
67 1 0.0426385 0.0148696 0.0106355 0.000685606 -0.00388975 0.0192962 5.69248e-08 1.4031e-08 -1.21972e-07 0.0005 1.46608e-07 
68 1 0.0434486 0.0167948 0.00784636 -0.000175903 -0.0195652 0.0102132 3.4431e-09 4.35469e-09 1.08936e-08 0.0005 1.46608e-07 
73 1 0.0349285 0.0181778 0.00592251 6.892e-16 6.72188e-15 2.0001e-14 1.92501e-20 1.05879e-22 -4.23516e-22 0.0005 1.46608e-07 
74 1 0.0333455 0.0233396 0.0109753 0.000728585 0.00055087 -0.0218049 2.93201e-08 -2.4375e-08 1.13503e-08 0.0005 1.46608e-07 
76 1 0.0274061 0.0233792 0.0112173 0.000820543 -0.000199384 -0.0225456 -1.97866e-08 -7.13139e-09 -1.38555e-08 0.0005 1.46608e-07 
79 1 0.054387 0.0178804 0.00601135 -1.30097e-14 -1.76708e-14 -2.51654e-13 7.61006e-21 -5.43954e-21 0 0.0005 1.46608e-07 
84 1 0.0347994 0.0196524 0.015752 0.0036744 0.00765916 -0.00283976 1.90639e-07 -1.78151e-06 5.00846e-07 0.0005 1.46608e-07 
87 1 0.041616 0.0163419 0.0148087 0.000202908 0.0149961 0.0128947 -1.83415e-09 8.74131e-09 -8.20327e-09 0.0005 1.46608e-07 
88 1 0.0409928 0.0188946 0.015737 0.000265663 0.0209033 0.000702313 -1.04299e-09 -1.33518e-09 -1.14579e-08 0.0005 1.46608e-07 
89 1 0.0438775 0.018719 0.00720751 0.000694951 -0.0176145 0.00211589 -6.73178e-06 5.6104e-06 -8.59235e-06 0.0005 1.46608e-07 
90 1 0.0331293 0.0230377 0.00981039 0.000301006 -0.00820725 -0.0186444 -2.51197e-09 -1.47519e-08 -8.11125e-09 0.0005 1.46608e-07 
92 1 0.0408164 0.0198362 0.0156492 0.00122851 0.0159672 -0.00177834 -1.98932e-09 -1.42358e-08 3.4687e-10 0.0005 1.46608e-07 
97 1 0.0184424 0.0146158 0.011948 0.00460418 -0.0013558 0.00225166 -3.3499e-09 -1.14407e-08 1.89938e-08 0.0005 1.46608e-07 
103 1 0.0388501 0.0225274 0.00891536 7.81267e-05 -0.0119956 -0.018427 -6.29354e-10 -1.14715e-08 2.8735e-09 0.0005 1.46608e-07 
106 1 0.0200833 0.0241068 0.0129406 -2.61602e-07 -0.000632268 -3.36738e-05 2.03592e-09 1.19696e-08 1.29236e-09 0.0005 1.46608e-07 
108 1 0.0214483 0.0168437 0.00645098 -2.38901e-14 5.08851e-14 1.84333e-13 -1.39205e-19 -9.74088e-21 -1.77877e-20 0.0005 1.46608e-07 
109 1 0.029171 0.0181185 0.0157301 0.000533437 0.0202374 0.00473875 -2.75962e-09 1.19196e-08 -8.43448e-09 0.0005 1.46608e-07 
112 1 0.0362224 0.0148662 0.0125777 0.00109254 0.00453691 0.0154462 -4.84984e-09 1.98188e-08 1.57233e-08 0.0005 1.46608e-07 
121 1 0.0586827 0.0172628 0.00598816 1.03796e-14 -2.15386e-14 -2.65e-13 1.70267e-20 6.2204e-22 6.35275e-22 0.0005 1.46608e-07 
122 1 0.0792478 0.0194315 0.00576454 1.18633e-14 4.0215e-14 1.70224e-13 -2.48234e-19 5.33631e-20 4.02341e-21 0.0005 1.46608e-07 
124 1 0.0202214 0.0190972 0.00716865 0.00023604 -0.0188674 0.000760582 -4.25225e-07 2.19439e-07 -1.4669e-08 0.0005 1.46608e-07 
125 1 0.044992 0.0228381 0.00954145 8.3728e-05 -0.00969297 -0.0199777 -9.98931e-10 -1.28591e-08 8.38339e-10 0.0005 1.46608e-07 
128 1 0.0303903 0.00406748 0.0435188 -9.67556e-317 -9.75879e-317 -3.22607e-12 0 0 0 0.0005 1.46608e-07 
130 1 0.0310483 0.0155383 0.00898782 0.000535721 -0.0089482 0.012901 -9.82275e-08 -1.12664e-07 3.47379e-07 0.0005 1.46608e-07 
131 1 0.0457627 0.0229421 0.00972843 3.2466e-05 -0.00868591 -0.0197048 -2.67846e-10 -1.18813e-08 -3.96538e-10 0.0005 1.46608e-07 
133 1 0.0236646 0.0163265 0.0150494 0.000685785 0.0166316 0.0155522 -1.40053e-07 5.03936e-08 -1.82693e-07 0.0005 1.46608e-07 
135 1 0.0440764 0.0195065 0.00721687 0.000487096 -0.0206328 -0.00255894 -1.40316e-05 -4.29073e-05 -1.74125e-06 0.0005 1.46608e-07 
137 1 0.0465254 0.0191962 0.00590655 2.38928e-15 1.33722e-14 9.20546e-14 9.13207e-21 1.74701e-21 -6.35275e-22 0.0005 1.46608e-07 
139 1 0.0342071 0.022069 0.0144927 -0.000963202 0.0181594 -0.0136684 1.03413e-08 6.72952e-10 -1.37494e-08 0.0005 1.46608e-07 
141 1 0.0314269 0.0167266 0.00783603 0.00115366 -0.0155634 0.0100631 8.23978e-09 5.3676e-08 -5.20247e-08 0.0005 1.46608e-07 
142 1 0.0461315 0.0223755 0.0142777 0.000116943 0.0151584 -0.0163585 -1.3196e-09 -5.01034e-10 -1.31984e-08 0.0005 1.46608e-07 
143 1 0.0391682 0.0231177 0.0100387 0.00036117 -0.0072041 -0.0178059 -2.80102e-09 -1.8085e-08 -1.48534e-08 0.0005 1.46608e-07 
147 1 0.0355435 0.0163737 0.0148006 4.55389e-05 0.0149756 0.0105711 -1.44949e-08 3.18693e-08 2.06997e-08 0.0005 1.46608e-07 
149 1 0.0584376 0.0191695 0.00582359 8.13459e-15 -1.68398e-14 -2.07264e-13 9.3306e-21 8.1924e-21 -2.11758e-22 0.0005 1.46608e-07 
150 1 0.0214519 0.0234205 0.0114878 0.000507621 0.000309892 -0.013119 2.84619e-10 -7.43731e-09 3.08446e-08 0.0005 1.46608e-07 
157 1 0.0193377 0.0164253 0.00807599 0.000538695 -0.0153347 0.0102184 1.34686e-08 4.48994e-08 -3.17378e-08 0.0005 1.46608e-07 
158 1 0.020084 0.0201843 0.0061153 5.51677e-15 -2.47837e-15 5.04897e-14 1.85288e-22 5.29396e-22 2.11758e-22 0.0005 1.46608e-07 
160 1 0.042933 0.0152807 0.00956696 -0.000163959 -0.00901337 0.0187788 2.07247e-09 9.99618e-09 1.23174e-08 0.0005 1.46608e-07 
161 1 0.0221348 0.00230077 0.0435188 9.74157e-317 -9.69799e-317 9.23294e-13 0 0 0 0.0005 1.46608e-07 
165 1 0.201805 0.0186174 0.00570934 -3.8561e-20 4.0743e-22 8.61844e-22 0 0 0 0.0005 1.46608e-07 
166 1 0.0373153 0.0163401 0.00812558 0.00117612 -0.0126796 0.0108467 -6.58627e-09 -1.10519e-08 3.3208e-08 0.0005 1.46608e-07 
167 1 0.0237736 0.015687 0.0142885 0.00180734 0.0110503 0.0201376 4.97095e-08 2.44153e-08 -5.37585e-08 0.0005 1.46608e-07 
173 1 0.0830234 0.0186618 0.00583976 1.15498e-14 3.23684e-14 -1.39059e-13 -3.65283e-21 -6.40569e-21 -2.32934e-21 0.0005 1.46608e-07 
174 1 0.0246494 0.0164829 0.0151247 0.00503228 -0.00189757 -0.00158174 -8.53842e-08 -1.62699e-07 -9.07263e-08 0.0005 1.46608e-07 
179 1 0.067984 0.0193424 0.00575613 3.82461e-15 7.55221e-15 2.61626e-13 2.65525e-20 2.29228e-20 -1.05879e-21 0.0005 1.46608e-07 
185 1 0.0406564 0.0205394 0.0155579 0.00184801 0.00630072 4.19873e-05 -6.26271e-09 -3.42493e-08 -1.55157e-09 0.0005 1.46608e-07 
186 1 0.0386496 0.0219135 0.00823768 0.000236613 -0.0154689 -0.0128963 -1.63331e-09 -1.44078e-08 2.79822e-09 0.0005 1.46608e-07 
187 1 0.0368888 0.0150826 0.0098323 0.000888752 -0.00490252 0.0103076 4.47313e-09 2.50595e-08 -2.69943e-08 0.0005 1.46608e-07 
191 1 0.0249591 0.0176314 0.0157274 -3.03128e-09 0.0195068 0.00659795 1.11851e-14 5.02699e-09 -1.48625e-08 0.0005 1.46608e-07 
193 1 0.0245476 0.0198163 0.00585259 2.60857e-15 4.27281e-16 -4.25291e-14 2.51463e-21 -1.48562e-21 2.11758e-22 0.0005 1.46608e-07 
194 1 0.0358125 0.0157008 0.0141744 -3.70974e-05 0.0124919 0.0179788 -1.12425e-09 1.05899e-08 -2.75244e-09 0.0005 1.46608e-07 
197 1 0.0393251 0.0233359 0.0109127 0.0012766 -0.00194611 -0.0178156 -1.96605e-08 -1.65733e-08 -1.52252e-08 0.0005 1.46608e-07 
200 1 0.0266215 0.0217299 0.00818285 0.000220236 -0.0164397 -0.0134088 -1.32585e-09 -1.09808e-08 4.89304e-09 0.0005 1.46608e-07 
205 1 0.0383457 0.0197753 0.00590075 5.79315e-15 -2.9034e-14 1.43227e-13 6.30179e-20 1.73642e-20 -6.35275e-22 0.0005 1.46608e-07 
215 1 0.026935 0.0188837 0.00598981 1.43031e-14 2.3041e-15 -2.33189e-13 3.97047e-23 1.98523e-21 0 0.0005 1.46608e-07 
225 1 0.0285557 0.0209733 0.0153869 0.000203485 0.0204795 -0.008933 -2.25243e-09 6.09659e-10 -1.31142e-08 0.0005 1.46608e-07 
226 1 0.0437017 0.017826 0.00747602 0.00145497 -0.0154039 0.00603139 -6.01394e-09 2.99755e-06 -1.2296e-06 0.0005 1.46608e-07 
227 1 0.0316942 0.0176978 0.00740047 0.000222914 -0.0205054 0.0063208 1.33931e-07 -6.72284e-07 2.20324e-07 0.0005 1.46608e-07 
229 1 0.0420272 0.0152112 0.0134365 0.00112909 0.0074982 0.0152395 2.09087e-08 -2.8768e-08 -8.98793e-08 0.0005 1.46608e-07 
232 1 0.0221996 0.00109062 0.0435188 9.58743e-317 9.68145e-317 4.97437e-14 0 0 0 0.0005 1.46608e-07 
237 1 0.0418124 0.0156786 0.0141645 0.000571736 0.0124146 0.0156304 4.28939e-09 1.53245e-09 -1.85073e-08 0.0005 1.46608e-07 
241 1 0.0322657 0.0203058 0.00748942 0.000831745 -0.0185822 -0.00435145 -1.60954e-08 -4.25642e-08 4.25127e-09 0.0005 1.46608e-07 
242 1 0.0308679 0.0150655 0.00988556 0.000373793 -0.0077611 0.0191598 -2.26439e-10 6.73485e-09 9.76536e-09 0.0005 1.46608e-07 
247 1 0.0445539 0.0215103 0.00798734 0.000385604 -0.011299 -0.00817013 2.23688e-08 2.30111e-07 1.24982e-07 0.0005 1.46608e-07 
252 1 0.0557897 0.0172859 0.0059806 9.79967e-15 1.33393e-14 1.89991e-13 -3.19226e-20 0 1.69407e-21 0.0005 1.46608e-07 
253 1 0.0895649 0.0187731 0.00575225 -1.32946e-14 1.89235e-14 2.53768e-13 -7.95682e-20 1.21787e-19 -1.37643e-20 0.0005 1.46608e-07 
256 1 0.0296738 0.0160482 0.0146002 0.000363516 0.0148714 0.0142684 -2.45473e-09 1.31873e-08 -1.98136e-09 0.0005 1.46608e-07 
257 1 0.0295005 0.0168062 0.0151527 0.000249081 0.0179934 0.0113303 -2.62553e-09 1.1726e-08 -4.79626e-09 0.0005 1.46608e-07 
258 1 0.0404668 0.021094 0.0152145 0.00245661 0.0119447 -0.0114336 3.56746e-09 1.57599e-08 -6.33106e-10 0.0005 1.46608e-07 
260 1 0.108836 0.0200055 0.00584234 7.67179e-16 -1.27468e-15 -6.97381e-15 -2.64698e-23 1.56701e-20 -3.38813e-21 0.0005 1.46608e-07 
268 1 0.0189798 0.015355 0.00929086 0.00100346 -0.00904578 0.0145269 8.22655e-10 6.43192e-09 5.00621e-09 0.0005 1.46608e-07 
269 1 0.0326831 0.0220105 0.00834723 0.0016298 -0.0115783 -0.0105762 -5.37742e-09 -1.62925e-08 -1.5442e-08 0.0005 1.46608e-07 
270 1 0.0303339 0.0148313 0.0119785 0.000739152 0.00295837 0.0185894 -7.40733e-10 7.74269e-09 4.14877e-09 0.0005 1.46608e-07 
271 1 0.0345348 0.0209633 0.0152462 0.000230103 0.0189241 -0.00975853 -1.61884e-09 -2.78958e-10 -1.21787e-08 0.0005 1.46608e-07 
274 1 0.0201767 0.0199288 0.00731952 0.000431916 -0.0210864 -0.00521482 -1.17623e-07 -1.59383e-07 -7.335e-08 0.0005 1.46608e-07 
275 1 0.0305306 0.0147812 0.0111669 0.00126968 -0.00208053 0.0120151 -4.04453e-09 -1.96016e-09 -1.71383e-08 0.0005 1.46608e-07 
277 1 0.0261649 0.0199103 0.00726865 -3.5661e-05 -0.0214888 -0.00545167 4.68692e-10 -5.78097e-09 1.07305e-08 0.0005 1.46608e-07 
284 1 0.00937694 0.00505359 0.0435188 -9.68799e-317 -9.69932e-317 9.23294e-13 0 0 0 0.0005 1.46608e-07 
288 1 0.0377754 0.021451 0.00628508 -6.84481e-15 2.32759e-14 -1.0732e-13 -7.86814e-20 -2.11758e-20 6.35275e-22 0.0005 1.46608e-07 
291 1 0.0278221 0.023137 0.0128952 0.00162741 0.00865035 -0.0186368 -1.89769e-07 3.02206e-08 -5.96507e-08 0.0005 1.46608e-07 
294 1 0.0236199 0.0221075 0.00855973 0.0010959 -0.0130836 -0.0129386 -6.8572e-09 -2.8485e-08 -1.18988e-08 0.0005 1.46608e-07 
299 1 0.0254808 0.018723 0.00589902 -2.08263e-14 -3.18119e-15 3.3879e-13 3.73356e-20 1.21213e-19 3.38813e-21 0.0005 1.46608e-07 
300 1 0.0376386 0.0174021 0.00750508 0.000404157 -0.0185265 0.00794479 -2.97048e-09 -6.79282e-09 1.58972e-08 0.0005 1.46608e-07 
