ITEM: TIMESTEP
13400000
ITEM: NUMBER OF ATOMS
131
ITEM: BOX BOUNDS ff ff ff
-0.02 0.43
-0.02 0.06
-0.02 0.07
ITEM: ATOMS id type x y z vx vy vz fx fy fz radius mass 
1 1 0.0234125 0.0185755 0.0159194 0.000837787 0.0185543 0.0018979 -5.22644e-08 2.70857e-07 -2.53813e-08 0.0005 1.46608e-07 
2 1 0.0203813 0.0240813 0.012793 -6.84121e-05 0.00011495 -0.000591097 1.88677e-08 9.42292e-09 1.82317e-09 0.0005 1.46608e-07 
4 1 0.0239482 0.0221877 0.0158067 -0.00473192 0.0290802 0.000450285 0 0 -1.43822e-06 0.0005 1.46608e-07 
5 1 0.0335393 0.0233051 0.0106624 0.00109117 -0.0032883 -0.0165718 -7.92853e-11 -3.34635e-08 -3.63637e-08 0.0005 1.46608e-07 
11 1 0.025712 0.0203498 0.0165679 -0.00589905 0.0214894 -0.0053617 2.37375e-09 -1.71351e-09 -1.1244e-08 0.0005 1.46608e-07 
15 1 0.00938048 0.0183393 0.00587271 3.6407e-15 5.69028e-16 -3.6901e-14 -6.88214e-22 -2.84219e-21 0 0.0005 1.46608e-07 
16 1 0.0260148 0.0196703 0.00594114 1.76443e-14 2.83719e-15 -2.87664e-13 -5.29396e-22 8.35949e-21 0 0.0005 1.46608e-07 
17 1 0.031506 0.0160844 0.00847065 -0.000258429 -0.0121743 0.0110131 2.51743e-09 -5.7623e-09 -7.28847e-10 0.0005 1.46608e-07 
18 1 0.0366849 0.0218066 0.0435188 -9.6879e-317 9.73506e-317 2.68131e-13 0 0 0 0.0005 1.46608e-07 
19 1 0.0169919 0.0205023 0.0157065 0.000366093 0.0202965 -0.00708763 -6.2436e-10 -2.35743e-09 -1.50363e-08 0.0005 1.46608e-07 
20 1 0.0375525 0.0161558 0.00828737 0.000820233 -0.0133649 0.0132157 -4.54371e-09 -1.98422e-09 1.8688e-08 0.0005 1.46608e-07 
24 1 0.0302234 0.0153805 0.0137318 -9.32118e-05 0.0100111 0.0203388 1.25189e-09 1.10517e-08 -3.89814e-09 0.0005 1.46608e-07 
25 1 0.0171624 0.0141592 0.0134209 0.000211987 0.000127466 -0.00048215 -1.55949e-08 -9.48954e-09 3.61691e-08 0.0005 1.46608e-07 
27 1 0.000591717 0.0149731 0.0435188 9.71467e-317 9.75789e-317 -8.23806e-13 0 0 0 0.0005 1.46608e-07 
28 1 0.0341534 0.0229576 0.0133948 0.000278025 0.00868619 -0.0183831 -4.61198e-10 -6.13772e-09 -1.21726e-08 0.0005 1.46608e-07 
31 1 0.0191438 0.0151564 0.0096646 0.000929363 -0.00780829 0.0177939 -1.01323e-08 -1.56697e-09 2.41717e-08 0.0005 1.46608e-07 
32 1 0.0214746 0.0229787 0.00964989 0.00134807 -0.00575163 -0.0109924 9.12805e-08 -1.84718e-07 -2.30775e-07 0.0005 1.46608e-07 
33 1 0.0192626 0.0139092 0.0131211 -1.43736e-05 -0.000582013 0.00116345 -1.7366e-07 -6.82277e-07 1.247e-06 0.0005 1.46608e-07 
35 1 0.0182587 0.0153006 0.0139116 0.00782658 -0.0107449 -0.0108575 1.628e-07 -3.48426e-08 -9.58247e-07 0.0005 1.46608e-07 
37 1 0.0326267 0.021121 0.00772013 0.000440136 -0.016277 -0.00774234 -1.42045e-09 -1.57176e-08 5.58443e-09 0.0005 1.46608e-07 
41 1 0.020761 0.0145153 0.0141497 0.00289742 0.000857496 -0.00422524 0 0 -1.43822e-06 0.0005 1.46608e-07 
43 1 0.0214527 0.0232459 0.0104502 -0.000451186 -0.00533264 -0.0197832 -1.78438e-07 -1.7165e-08 -2.06191e-07 0.0005 1.46608e-07 
44 1 0.0261569 0.0186998 0.00718971 0.00070262 -0.019627 0.00222633 -3.62645e-09 -1.00319e-08 1.11971e-08 0.0005 1.46608e-07 
47 1 0.0182642 0.014006 0.013123 0.00196568 0.00267419 -0.00854664 1.44996e-07 9.06363e-08 -3.31631e-07 0.0005 1.46608e-07 
49 1 0.003617 0.0285782 0.0435188 -9.68849e-317 -9.75601e-317 2.88878e-12 0 0 0 0.0005 1.46608e-07 
52 1 0.036975 0.0148744 0.0105398 0.000287904 -0.00299622 0.0184232 -3.89169e-10 6.05366e-09 1.25095e-08 0.0005 1.46608e-07 
57 1 0.0196051 0.0193773 0.00612808 -3.58952e-14 1.61088e-14 -3.28527e-13 6.08805e-21 6.91258e-20 2.5411e-21 0.0005 1.46608e-07 
59 1 0.0349488 0.0202298 0.0155867 0.00117193 0.0173427 -0.00605423 -6.96191e-09 1.43386e-08 -1.47982e-08 0.0005 1.46608e-07 
62 1 0.0185975 0.014707 0.0124925 0.00630072 0.00245093 -0.0063272 1.29644e-07 4.48546e-08 -6.03657e-07 0.0005 1.46608e-07 
63 1 0.0193342 0.0149063 0.0131405 0.00210633 -0.000582397 0.00313845 2.09589e-07 -3.79568e-07 1.87335e-07 0.0005 1.46608e-07 
65 1 0.0345429 0.021798 0.00813149 -1.5959e-05 0.00332013 0.00191398 9.62719e-09 3.67222e-08 9.81208e-08 0.0005 1.46608e-07 
67 1 0.0344001 0.022379 0.0142301 -0.00118704 0.0165122 -0.0149654 2.68996e-08 7.73626e-09 -2.34199e-08 0.0005 1.46608e-07 
68 1 0.035336 0.018617 0.0156948 0.000163822 0.0227406 0.00372612 8.54222e-10 1.92195e-09 -1.19632e-08 0.0005 1.46608e-07 
71 1 0.0134355 0.0176583 0.0157182 0.000828108 0.012095 0.00408619 -4.65475e-08 1.65091e-07 5.10842e-08 0.0005 1.46608e-07 
73 1 0.021087 0.0235639 0.0142453 -0.0037388 0.00659638 -0.0115928 6.22445e-08 6.11236e-07 -9.46978e-07 0.0005 1.46608e-07 
74 1 0.0271946 0.0225979 0.00902153 0.00171726 -0.00788582 -0.00999743 -7.86491e-09 -2.06892e-08 -2.42274e-08 0.0005 1.46608e-07 
76 1 0.024455 0.02138 0.0153029 0.000814936 0.000886712 0.000246153 -5.12625e-07 3.55539e-07 1.91881e-07 0.0005 1.46608e-07 
79 1 0.0324974 0.0202265 0.00744693 0.00151914 -0.0166914 -0.00370525 -4.55716e-09 -1.20706e-08 3.58046e-09 0.0005 1.46608e-07 
84 1 0.0285051 0.0220789 0.0144783 0.000335915 0.0143988 -0.0149811 -2.25323e-09 -2.48298e-09 -1.22523e-08 0.0005 1.46608e-07 
86 1 0.0249688 0.0216271 0.0161243 0.000124874 0.000592841 0.000635983 7.37431e-08 6.14461e-08 2.4487e-07 0.0005 1.46608e-07 
87 1 0.032889 0.0217699 0.00812104 0.00137874 -0.014521 -0.0126036 -2.82038e-09 -7.04586e-09 -1.3138e-09 0.0005 1.46608e-07 
88 1 0.0316755 0.0165041 0.0149936 -0.000326304 0.0153043 0.0141906 -1.67416e-08 6.52766e-09 -1.46644e-08 0.0005 1.46608e-07 
89 1 0.0360504 0.015864 0.0143965 0.00172445 0.0100894 0.0129998 1.53169e-09 2.20659e-09 -5.35391e-09 0.0005 1.46608e-07 
90 1 0.0268341 0.0215342 0.00799929 0.000118541 -0.0173149 -0.0129031 -1.31116e-09 -9.96216e-09 5.65192e-09 0.0005 1.46608e-07 
92 1 0.0322659 0.0191591 0.00725001 -3.61885e-05 -0.0222195 -0.00184413 -2.97725e-10 -3.23474e-09 1.1808e-08 0.0005 1.46608e-07 
97 1 0.0170129 0.0236806 0.0127616 0.000848808 -0.00019423 -0.00325979 -1.02556e-06 2.30138e-07 1.49473e-06 0.0005 1.46608e-07 
103 1 0.0307933 0.0147602 0.0113342 0.00287599 -0.00179625 0.0100842 1.12974e-08 -4.70746e-09 -1.11e-07 0.0005 1.46608e-07 
106 1 0.0190458 0.0160222 0.0147535 0.00565507 0.00573152 -0.00182226 -3.52322e-08 4.88927e-07 2.48831e-07 0.0005 1.46608e-07 
108 1 0.0214483 0.0168437 0.00645098 -2.3868e-14 5.08889e-14 1.84334e-13 -5.06896e-20 2.05935e-20 -7.41154e-21 0.0005 1.46608e-07 
109 1 0.0227912 0.0220505 0.0147992 -0.00871026 0.005625 -0.00623346 5.14096e-07 -6.66818e-06 6.32175e-06 0.0005 1.46608e-07 
110 1 0.0193401 0.0240993 0.0129206 2.14836e-06 0.00020499 -0.000165122 1.17953e-10 1.08825e-08 -6.51706e-09 0.0005 1.46608e-07 
112 1 0.0293724 0.0185822 0.0158022 0.000574038 0.0209126 0.00326927 1.31619e-09 4.36673e-09 -1.02132e-08 0.0005 1.46608e-07 
116 1 0.0227188 0.0237925 0.0146946 1.06212e-05 -0.000117737 -0.000225399 -1.0394e-07 5.72527e-07 6.54639e-07 0.0005 1.46608e-07 
121 1 0.0551527 0.0181697 0.00595147 -1.29955e-14 -1.76705e-14 -2.51655e-13 -6.00335e-20 3.29946e-20 1.27055e-21 0.0005 1.46608e-07 
122 1 0.0386901 0.0210648 0.00769364 0.00095416 -0.0161267 -0.00801001 -6.59661e-09 -5.69222e-08 -1.33107e-08 0.0005 1.46608e-07 
124 1 0.019873 0.0159345 0.00856678 0.000975152 -0.0129723 0.0150242 -4.33676e-08 -1.06602e-08 2.82057e-08 0.0005 1.46608e-07 
125 1 0.0377839 0.0171183 0.00763353 0.000372161 -0.0186353 0.00918846 -1.43555e-09 -3.12618e-09 1.27623e-08 0.0005 1.46608e-07 
126 1 0.0224167 0.022882 0.0143891 0.00313753 0.00197973 -0.00114927 -1.30309e-06 4.35088e-06 -4.94534e-06 0.0005 1.46608e-07 
128 1 0.0303903 0.00406748 0.0435188 -9.67556e-317 -9.75879e-317 -3.22607e-12 0 0 0 0.0005 1.46608e-07 
130 1 0.0233553 0.0226088 0.014191 0.000879477 0.0005008 -0.000406818 -7.43122e-07 1.38429e-06 -6.05462e-07 0.0005 1.46608e-07 
131 1 0.0331949 0.0207952 0.00761184 0.000923318 -0.0173876 -0.00622135 -7.51663e-09 -1.97954e-08 2.60446e-09 0.0005 1.46608e-07 
133 1 0.0180445 0.0159762 0.0147134 0.00496618 -0.0012958 0.000170645 3.71381e-08 -1.49057e-07 -1.05631e-07 0.0005 1.46608e-07 
135 1 0.0364235 0.0149425 0.012747 0.00163442 0.0060931 0.016639 -1.46274e-08 1.63056e-08 2.8636e-08 0.0005 1.46608e-07 
137 1 0.0239618 0.0220742 0.0147791 4.67729e-05 0.000737023 1.79361e-05 -1.84441e-06 6.4923e-06 -5.28607e-06 0.0005 1.46608e-07 
138 1 0.0229678 0.0206051 0.0156797 -0.0042422 0.0146447 -0.00539875 -1.81597e-05 -2.68766e-05 1.16506e-05 0.0005 1.46608e-07 
139 1 0.0275004 0.0232474 0.0104184 0.000934272 -0.00573562 -0.0197035 -1.71607e-08 -8.7155e-09 -2.09923e-08 0.0005 1.46608e-07 
141 1 0.0248847 0.0205664 0.0156942 0.00379405 0.00216316 -0.000944938 1.7885e-08 -7.36353e-07 2.23183e-07 0.0005 1.46608e-07 
142 1 0.038912 0.0218769 0.0082184 0.000701455 -0.0151999 -0.012379 -3.81306e-09 -1.56679e-08 -5.69546e-10 0.0005 1.46608e-07 
143 1 0.0309463 0.0148558 0.0106745 0.0010806 -0.00379126 0.0175128 4.6313e-10 9.74736e-09 -2.80927e-08 0.0005 1.46608e-07 
147 1 0.0287176 0.021327 0.0151806 0.00111257 0.0127031 -0.00731171 2.51101e-09 -6.31103e-09 -6.93969e-09 0.0005 1.46608e-07 
149 1 0.0570019 0.0175547 0.00590579 4.36128e-15 1.18864e-14 2.80768e-13 -1.70631e-20 6.41892e-21 -2.11758e-22 0.0005 1.46608e-07 
150 1 0.0243593 0.0150286 0.0130796 8.21564e-05 0.00741177 0.0204986 -6.99278e-10 1.29656e-08 2.98007e-09 0.0005 1.46608e-07 
151 1 0.0240433 0.0159839 0.0147169 0.00390352 0.00290075 0.00339136 3.36867e-08 -1.35126e-07 -1.07884e-07 0.0005 1.46608e-07 
157 1 0.0196437 0.0165162 0.00804734 0.00176387 -0.0144786 0.0112719 -2.20034e-08 -2.11615e-08 1.50709e-08 0.0005 1.46608e-07 
158 1 0.0177747 0.0169713 0.0154285 0.000643175 0.017906 0.00940433 -4.14649e-10 7.72536e-09 -1.0813e-08 0.0005 1.46608e-07 
160 1 0.0347055 0.0214054 0.0149568 3.9447e-05 0.0189537 -0.012029 -1.48429e-09 -4.03988e-09 -9.94131e-09 0.0005 1.46608e-07 
161 1 0.0221348 0.00230077 0.0435188 9.74157e-317 -9.69799e-317 9.23294e-13 0 0 0 0.0005 1.46608e-07 
165 1 0.0188816 0.0148148 0.0109413 -8.70709e-05 -0.00403326 0.0222682 2.3216e-09 7.85769e-09 7.14627e-09 0.0005 1.46608e-07 
166 1 0.0297627 0.0167381 0.0151156 0.000576682 0.017209 0.0112909 -5.28638e-08 6.41537e-09 1.79745e-08 0.0005 1.46608e-07 
167 1 0.0216545 0.0149014 0.0147109 0.00167087 -0.00460769 -0.00333132 -5.02162e-08 -3.56604e-07 -3.75991e-07 0.0005 1.46608e-07 
170 1 0.0212241 0.0239953 0.0133247 -0.000547649 -0.00105583 -0.00251725 -6.47707e-08 1.11441e-07 -3.84312e-08 0.0005 1.46608e-07 
171 1 0.0128781 0.0195672 0.0159133 3.20708e-10 0.0203625 -0.00246583 -2.10981e-16 -1.71338e-09 -1.3542e-08 0.0005 1.46608e-07 
173 1 0.0203406 0.0149388 0.0132047 0.00427971 -0.00306329 -0.00294108 -8.39737e-08 -2.05064e-07 -2.54416e-07 0.0005 1.46608e-07 
174 1 0.0221499 0.023697 0.0138779 0.000134916 0.000373057 -4.96562e-05 2.9604e-07 5.13169e-07 -2.61129e-07 0.0005 1.46608e-07 
179 1 0.023416 0.0214067 0.0152853 -0.00274346 0.00884822 -0.00312359 2.00483e-05 1.91542e-05 -1.02857e-05 0.0005 1.46608e-07 
185 1 0.0319382 0.0178031 0.0073509 0.000546502 -0.0199436 0.00572941 -9.82712e-10 -4.98738e-09 1.24271e-08 0.0005 1.46608e-07 
186 1 0.0306518 0.0148054 0.0118951 0.00301204 0.00150731 0.0106308 1.56097e-08 -3.20964e-08 -9.62471e-08 0.0005 1.46608e-07 
187 1 0.0295608 0.0175861 0.0155258 0.000523176 0.0177864 0.00800481 8.38684e-08 8.08384e-08 8.49775e-08 0.0005 1.46608e-07 
191 1 0.0237122 0.017216 0.0155623 0.000590203 0.0185752 0.00863138 -1.07302e-09 6.07369e-09 -1.32852e-08 0.0005 1.46608e-07 
193 1 0.0245476 0.0198163 0.00585259 2.60865e-15 4.20727e-16 -4.25291e-14 -3.04402e-22 3.43942e-21 0 0.0005 1.46608e-07 
194 1 0.02913 0.019521 0.0157989 0.00104543 0.0182985 -0.00294874 -9.34186e-09 2.08844e-08 -1.19751e-08 0.0005 1.46608e-07 
197 1 0.0311053 0.015073 0.00988129 0.000374197 -0.00707936 0.0187325 -1.23825e-09 1.02269e-08 -2.45264e-09 0.0005 1.46608e-07 
200 1 0.0186524 0.0187041 0.0159338 5.77117e-10 0.0204817 0.00146713 -5.37245e-13 8.61628e-10 -1.36425e-08 0.0005 1.46608e-07 
205 1 0.0312739 0.0154548 0.00917814 0.00112919 -0.0105796 0.0148861 8.60111e-10 1.21266e-08 -5.33526e-11 0.0005 1.46608e-07 
206 1 0.0195322 0.0146407 0.0121432 0.00473322 0.000825639 -0.00985348 1.25572e-07 -5.65862e-08 -4.66617e-07 0.0005 1.46608e-07 
215 1 0.026935 0.0188837 0.00598981 1.43033e-14 2.30522e-15 -2.33189e-13 -5.29396e-22 -1.66263e-21 0 0.0005 1.46608e-07 
224 1 0.0235247 0.0230252 0.0150842 0.000139495 -0.000156454 0.000161785 -3.91884e-08 2.24547e-07 1.05539e-07 0.0005 1.46608e-07 
225 1 0.0197924 0.0144565 0.0139071 0.00606729 -0.0168951 -0.00910226 2.82092e-07 5.9166e-08 -5.3046e-07 0.0005 1.46608e-07 
226 1 0.0358509 0.0163839 0.0148709 0.00314348 0.00692309 0.00532671 -2.33546e-08 4.98486e-08 3.5574e-08 0.0005 1.46608e-07 
227 1 0.0248365 0.0195932 0.0159189 0.00725261 0.00197117 -0.0014383 -2.12767e-07 -5.7005e-07 1.43184e-07 0.0005 1.46608e-07 
228 1 0.0222985 0.0232949 0.0106255 -3.29871e-05 -0.00429821 -0.0198912 -6.51636e-11 -2.78223e-08 -8.59547e-08 0.0005 1.46608e-07 
229 1 0.0333372 0.0229845 0.00975688 0.000283837 -0.00900892 -0.0184715 -2.49926e-09 -1.00008e-08 -1.43968e-08 0.0005 1.46608e-07 
232 1 0.0221996 0.00109062 0.0435188 9.58743e-317 9.68145e-317 4.97437e-14 0 0 0 0.0005 1.46608e-07 
235 1 0.0219515 0.0232713 0.0125969 0.00149301 0.00123392 -0.0134718 -2.58833e-08 3.02432e-08 -1.6561e-07 0.0005 1.46608e-07 
237 1 0.0331221 0.0223886 0.00873248 0.000963586 -0.0117834 -0.0143568 -8.73291e-09 -3.08603e-08 -6.00318e-09 0.0005 1.46608e-07 
240 1 0.0247472 0.0165346 0.0151707 0.00527239 0.00347509 0.00371706 -1.77861e-07 -1.76892e-08 1.99731e-09 0.0005 1.46608e-07 
241 1 0.0249166 0.0149406 0.0102584 0.00103981 -0.0060008 0.0199967 2.22722e-09 1.01576e-08 8.38748e-09 0.0005 1.46608e-07 
242 1 0.0225014 0.0233537 0.0119934 0.000795738 0.00219803 -0.0189175 -6.39338e-09 1.40913e-08 -6.44736e-08 0.0005 1.46608e-07 
247 1 0.0371121 0.0151268 0.00979224 0.000998815 -0.00596081 0.0121988 -1.07177e-09 1.33523e-08 2.89619e-08 0.0005 1.46608e-07 
252 1 0.0161558 0.0232065 0.0130881 0.00431237 0.00192196 -0.00258557 -2.01395e-08 3.08254e-09 1.73368e-07 0.0005 1.46608e-07 
253 1 0.0204724 0.0143934 0.012377 0.00499776 0.00435568 -0.00770141 2.22941e-08 4.21835e-08 -2.18192e-07 0.0005 1.46608e-07 
256 1 0.0208877 0.0140975 0.0132478 -9.81714e-05 0.0035212 -0.00803121 -1.00217e-07 2.38347e-07 -8.02326e-07 0.0005 1.46608e-07 
257 1 0.0192616 0.0153802 0.0140179 0.00534502 0.00151777 0.00218164 -2.76308e-07 1.42772e-06 2.81312e-07 0.0005 1.46608e-07 
258 1 0.0317227 0.0167472 0.00783515 0.000953266 -0.0137437 0.00841612 1.01783e-08 -6.20641e-09 1.76584e-08 0.0005 1.46608e-07 
260 1 0.108836 0.0200055 0.00584234 7.53234e-16 -1.27683e-15 -6.97501e-15 0 0 0 0.0005 1.46608e-07 
263 1 0.0209368 0.021902 0.00835236 0.000144485 -0.0159767 -0.0139824 -1.01675e-09 -1.23605e-08 3.31072e-09 0.0005 1.46608e-07 
268 1 0.0198477 0.0174213 0.00747348 0.000763627 -0.0180361 0.00742818 -4.15163e-09 -8.46359e-09 1.47503e-08 0.0005 1.46608e-07 
269 1 0.0265127 0.0202624 0.00738053 5.78251e-05 -0.0206765 -0.00660769 -1.65044e-10 -8.73981e-09 8.24245e-09 0.0005 1.46608e-07 
270 1 0.022554 0.014568 0.0142471 -0.00144759 -0.000152677 -0.00115334 -2.70824e-08 -2.00835e-08 7.47231e-09 0.0005 1.46608e-07 
271 1 0.0280403 0.0231597 0.0129003 -0.000216104 0.00807833 -0.0170191 -1.70742e-08 -2.67907e-08 -4.50673e-08 0.0005 1.46608e-07 
272 1 0.0216948 0.0143209 0.0137971 -0.00189424 -0.000546332 -0.00125556 -1.3424e-08 -2.04355e-08 8.02275e-09 0.0005 1.46608e-07 
274 1 0.0232372 0.0196705 0.0159122 -6.79871e-11 0.0203535 -0.00304628 -6.57866e-16 -2.18887e-09 -1.35326e-08 0.0005 1.46608e-07 
275 1 0.0227969 0.0230416 0.0134825 0.000728398 0.00047612 -0.000362854 1.44589e-06 2.53504e-07 1.53314e-07 0.0005 1.46608e-07 
277 1 0.0173614 0.0234866 0.0118447 0.000681356 -0.0010401 -0.00308754 8.64082e-07 -3.97481e-07 -3.95824e-07 0.0005 1.46608e-07 
282 1 0.0182584 0.0240395 0.0129186 -0.00166971 -0.00266507 -0.00583422 -1.36702e-08 -5.18971e-09 -8.77195e-09 0.0005 1.46608e-07 
284 1 0.00937694 0.00505359 0.0435188 -9.68799e-317 -9.69932e-317 9.23294e-13 0 0 0 0.0005 1.46608e-07 
288 1 0.0204926 0.0190616 0.00715849 -5.20192e-06 -0.00909065 -0.0011522 -8.33548e-11 1.11009e-08 7.3973e-09 0.0005 1.46608e-07 
291 1 0.0166401 0.0238572 0.0136728 0.00408713 0.00187905 -0.00234086 5.08723e-07 1.33038e-07 -4.95701e-07 0.0005 1.46608e-07 
294 1 0.0244057 0.018691 0.0159354 0.00262444 0.00426433 -0.000587407 -2.24642e-07 -4.26363e-07 -1.01618e-07 0.0005 1.46608e-07 
299 1 0.0254808 0.018723 0.00589902 -2.07631e-14 -3.41063e-15 3.38792e-13 7.54389e-22 4.76473e-20 4.23516e-22 0.0005 1.46608e-07 
300 1 0.0300002 0.0160213 0.0145578 0.000352423 0.0146743 0.0143336 -5.69976e-09 2.57849e-08 1.98754e-08 0.0005 1.46608e-07 
