ITEM: TIMESTEP
15600000
ITEM: NUMBER OF ATOMS
128
ITEM: BOX BOUNDS ff ff ff
-0.02 0.43
-0.02 0.06
-0.02 0.07
ITEM: ATOMS id type x y z vx vy vz fx fy fz radius mass 
1 1 0.0190056 0.0183834 0.00721609 0.000265714 -0.0205848 0.00317339 -1.33167e-09 -7.94127e-09 1.15819e-08 0.0005 1.46608e-07 
2 1 0.0213605 0.0237601 0.0142667 -0.00164757 0.00189222 -0.00660336 8.00866e-07 -1.69568e-06 2.09685e-06 0.0005 1.46608e-07 
4 1 0.0168722 0.0238335 0.0138998 -0.00120749 -0.00399304 -0.00224687 -9.39977e-08 3.86627e-08 -5.77138e-07 0.0005 1.46608e-07 
5 1 0.036345 0.0158982 0.00862321 0.00191628 -0.00922411 0.0117767 -1.17857e-08 -2.28704e-08 3.93778e-08 0.0005 1.46608e-07 
11 1 0.0236676 0.0229014 0.0151173 0.000230298 -8.97735e-05 0.000272255 -2.17306e-06 1.23007e-06 -5.15037e-06 0.0005 1.46608e-07 
15 1 0.00938048 0.0183393 0.00587271 3.64801e-15 5.22781e-16 -3.6901e-14 8.73503e-22 -1.72054e-20 -2.11758e-22 0.0005 1.46608e-07 
16 1 0.0260148 0.0196703 0.00594114 1.76438e-14 2.84351e-15 -2.87664e-13 1.69407e-21 -8.39092e-21 0 0.0005 1.46608e-07 
17 1 0.0339348 0.0200416 0.0156006 0.00180494 0.0157073 -0.00450484 -1.88536e-07 -3.9833e-06 3.68955e-06 0.0005 1.46608e-07 
18 1 0.0366849 0.0218066 0.0435188 -9.6879e-317 9.73506e-317 2.68131e-13 0 0 0 0.0005 1.46608e-07 
19 1 0.0199458 0.0222905 0.00866766 0.000260997 -0.0101196 -0.011646 -1.03519e-07 -2.66758e-07 -2.94047e-07 0.0005 1.46608e-07 
20 1 0.0404483 0.0177227 0.0155999 0.00356628 0.00622199 0.00297812 -9.84715e-08 -3.75376e-08 1.6049e-07 0.0005 1.46608e-07 
24 1 0.0321777 0.022867 0.00939056 0.000406068 -0.00979687 -0.018605 2.47587e-10 -1.2249e-08 3.31582e-10 0.0005 1.46608e-07 
25 1 0.0204345 0.0240482 0.0140234 -0.00368794 0.00360732 -0.00292246 1.00945e-06 -1.65521e-06 1.22091e-06 0.0005 1.46608e-07 
27 1 0.000591717 0.0149731 0.0435188 9.71467e-317 9.75789e-317 -8.23806e-13 0 0 0 0.0005 1.46608e-07 
28 1 0.0370613 0.0185815 0.00728099 -0.00318729 -0.0244131 -6.83075e-05 2.85489e-08 4.66844e-08 -2.38133e-08 0.0005 1.46608e-07 
31 1 0.0231694 0.0153439 0.0139805 0.00389084 0.00354842 0.00446634 3.21243e-08 4.0396e-08 -4.26481e-08 0.0005 1.46608e-07 
32 1 0.0168466 0.023401 0.0124438 0.00392339 0.000133367 -0.00559026 1.86182e-08 1.92889e-08 5.44901e-08 0.0005 1.46608e-07 
33 1 0.0218308 0.0233349 0.0127536 0.000301942 0.00143187 -0.0028931 -1.92727e-06 -1.13653e-06 -2.92638e-06 0.0005 1.46608e-07 
35 1 0.0238348 0.0158149 0.0145594 0.00498775 0.00513235 0.00200391 2.61664e-08 2.18654e-08 6.08349e-08 0.0005 1.46608e-07 
37 1 0.0349859 0.0156986 0.014123 0.00208822 0.0118734 0.0162504 -1.31208e-08 1.01243e-08 1.15431e-08 0.0005 1.46608e-07 
41 1 0.0161322 0.0232063 0.0131232 0.00232052 0.000377545 -0.00277162 1.15435e-07 -2.06845e-08 -3.3643e-07 0.0005 1.46608e-07 
43 1 0.0222806 0.0236914 0.0138814 0.000163378 0.000572989 -0.00113086 -5.80275e-07 9.66093e-07 -8.90325e-07 0.0005 1.46608e-07 
44 1 0.0280218 0.0195842 0.0157858 0.000649153 0.0203927 -0.00416368 4.58376e-09 1.61014e-07 -3.40184e-08 0.0005 1.46608e-07 
47 1 0.0230249 0.0234933 0.0145671 0.00114412 0.000453979 0.000571422 -9.51323e-07 -1.07914e-06 -4.41468e-06 0.0005 1.46608e-07 
49 1 0.003617 0.0285782 0.0435188 -9.68849e-317 -9.75601e-317 2.88878e-12 0 0 0 0.0005 1.46608e-07 
52 1 0.0397424 0.0208358 0.0153598 0.00239358 0.0128057 -0.00726555 -1.66306e-08 4.07144e-08 -2.25995e-08 0.0005 1.46608e-07 
57 1 0.0196051 0.0193773 0.00612808 -3.58939e-14 1.61004e-14 -3.28528e-13 -1.07997e-20 -1.56172e-21 1.05879e-21 0.0005 1.46608e-07 
59 1 0.0384777 0.023283 0.0105391 0.000547889 -0.00479275 -0.0180477 8.72086e-09 -2.6575e-08 4.86659e-08 0.0005 1.46608e-07 
62 1 0.021451 0.021984 0.0148373 -0.000554556 0.0138354 -0.0127419 5.98942e-07 -2.23061e-07 -5.95269e-07 0.0005 1.46608e-07 
63 1 0.0179078 0.0146265 0.0119303 0.000180742 -0.000269952 0.000443521 6.96475e-10 -9.93875e-09 1.04824e-08 0.0005 1.46608e-07 
65 1 0.0367581 0.0172808 0.00760365 0.00123235 -0.0193126 0.00798809 1.78562e-08 -3.62473e-07 1.16478e-07 0.0005 1.46608e-07 
67 1 0.0374441 0.0202111 0.00745039 0.00055065 -0.0199148 -0.00517536 -3.58242e-09 -1.07373e-08 8.6239e-09 0.0005 1.46608e-07 
68 1 0.0386157 0.0233449 0.0113426 0.00051979 0.000289287 -0.0204257 4.40864e-08 9.90629e-09 2.2682e-07 0.0005 1.46608e-07 
71 1 0.0187483 0.0171932 0.00762305 0.00109828 -0.0158964 0.00885687 -1.95836e-08 -7.54633e-08 6.18331e-08 0.0005 1.46608e-07 
73 1 0.0176855 0.0151816 0.0136855 0.0128984 0.000351605 0.00015252 -3.38376e-08 -9.93184e-09 1.57707e-08 0.0005 1.46608e-07 
74 1 0.0292299 0.0152115 0.0132851 0.000133629 0.00861393 0.0209563 -1.32233e-09 1.29928e-08 -2.50556e-10 0.0005 1.46608e-07 
76 1 0.0174415 0.0147851 0.0128005 0.00423885 0.000467172 0.00248263 1.33299e-09 -2.61705e-08 1.12432e-08 0.0005 1.46608e-07 
79 1 0.034816 0.0161938 0.0147012 0.00240164 0.0107032 0.00942912 -2.3444e-08 6.12952e-08 4.51566e-08 0.0005 1.46608e-07 
84 1 0.0302693 0.0156309 0.00886788 0.00091457 -0.00897021 0.0118253 5.03757e-11 6.40124e-09 2.59333e-08 0.0005 1.46608e-07 
87 1 0.0355168 0.0148256 0.0121609 0.000578016 0.00195965 0.0171522 2.64101e-09 9.35296e-09 -1.22483e-08 0.0005 1.46608e-07 
88 1 0.0343773 0.01947 0.0158337 0.00106743 0.00891163 -0.00041879 1.39645e-06 -3.24567e-06 -1.47633e-06 0.0005 1.46608e-07 
89 1 0.0390363 0.0230571 0.0131467 0.00122732 0.00829376 -0.0156315 -1.84392e-06 2.36913e-06 -7.61827e-06 0.0005 1.46608e-07 
90 1 0.0286798 0.016894 0.0151709 0.000137976 0.0183497 0.0113264 -7.9702e-10 1.01189e-08 -5.61008e-09 0.0005 1.46608e-07 
92 1 0.0346552 0.0168218 0.0150876 -3.5721e-05 0.0142667 0.00653392 -1.92615e-09 7.76781e-08 8.95946e-09 0.0005 1.46608e-07 
97 1 0.019368 0.0232792 0.0104367 0.000290337 -0.00455009 -0.0163643 -6.35546e-10 -1.23973e-08 -7.17105e-09 0.0005 1.46608e-07 
103 1 0.0326422 0.0233916 0.0115522 0.00144428 0.00181146 -0.0188632 1.60327e-08 -2.75615e-08 3.62925e-09 0.0005 1.46608e-07 
106 1 0.0184929 0.0240969 0.0129567 5.9891e-05 0.00149582 -0.000658053 -5.44159e-08 -4.43747e-08 1.98633e-08 0.0005 1.46608e-07 
108 1 0.0214483 0.0168437 0.00645098 -2.38721e-14 5.08876e-14 1.84334e-13 -2.39552e-20 2.77933e-20 -6.98802e-21 0.0005 1.46608e-07 
109 1 0.0239568 0.0149881 0.0102313 0.000918402 -0.00708303 0.022334 -1.71433e-08 -3.65565e-08 -4.42305e-08 0.0005 1.46608e-07 
110 1 0.0210398 0.0232541 0.0104191 0.000348974 -0.00502882 -0.0201208 -5.01534e-09 -1.05594e-08 -3.55258e-09 0.0005 1.46608e-07 
112 1 0.0312069 0.0194345 0.00722897 8.21189e-05 -0.0218394 -0.002668 -2.08645e-10 -7.36785e-09 1.07909e-08 0.0005 1.46608e-07 
116 1 0.0181024 0.023742 0.0138061 0.000356184 0.000195181 -0.00110353 4.8996e-07 1.90805e-07 -4.38287e-07 0.0005 1.46608e-07 
121 1 0.0551527 0.0181697 0.00595147 -1.30068e-14 -1.76691e-14 -2.51655e-13 -7.59683e-21 -1.16467e-21 6.35275e-22 0.0005 1.46608e-07 
122 1 0.0407321 0.0167083 0.0150641 0.0019049 0.0109289 0.00882968 1.98973e-09 -9.06153e-08 -3.26718e-08 0.0005 1.46608e-07 
124 1 0.0160286 0.0237874 0.0144348 -0.00130128 -0.00153203 -0.000554446 6.60396e-07 -1.7399e-07 -7.17811e-07 0.0005 1.46608e-07 
125 1 0.0405986 0.017227 0.0153771 0.00236768 0.00547543 0.00328638 6.91828e-08 -6.84327e-08 -1.31425e-08 0.0005 1.46608e-07 
126 1 0.0213209 0.0239832 0.0132731 0.000430537 -0.000170246 -0.00382189 -2.85587e-06 1.43693e-06 1.87287e-07 0.0005 1.46608e-07 
128 1 0.0303903 0.00406748 0.0435188 -9.67556e-317 -9.75879e-317 -3.22607e-12 0 0 0 0.0005 1.46608e-07 
130 1 0.0265077 0.0233455 0.0108218 0.00166001 -0.00152049 -0.0157102 -2.26751e-07 -2.27908e-09 7.96776e-07 0.0005 1.46608e-07 
131 1 0.0375158 0.0176848 0.00738733 0.00129706 -0.00374738 -0.0010968 1.72166e-07 3.11412e-07 2.9316e-08 0.0005 1.46608e-07 
133 1 0.0208993 0.023463 0.0120637 0.00120154 0.00262823 -0.0195146 -2.01267e-08 -5.67025e-10 5.64568e-09 0.0005 1.46608e-07 
135 1 0.0393973 0.0220306 0.0144532 7.41912e-05 0.0156683 -0.0150672 -1.3033e-09 -5.60959e-09 -1.01037e-08 0.0005 1.46608e-07 
137 1 0.0307275 0.0188227 0.00574705 -1.48113e-14 9.66816e-17 -1.73752e-13 1.85288e-22 1.15838e-19 0 0.0005 1.46608e-07 
138 1 0.0203451 0.0241101 0.0130295 -0.00130797 -0.000357503 -0.00263337 -1.42365e-06 4.20649e-07 -1.78228e-06 0.0005 1.46608e-07 
139 1 0.0295568 0.014804 0.011726 0.00125226 0.00182568 0.0179745 -8.95491e-09 1.07947e-08 2.87706e-08 0.0005 1.46608e-07 
141 1 0.0270592 0.0230175 0.0131172 0.000447011 0.0129681 -0.0188359 1.51471e-05 3.4744e-05 -2.35267e-05 0.0005 1.46608e-07 
142 1 0.0414922 0.0148377 0.0122914 -3.44961e-05 0.0026725 0.0222033 -2.06001e-10 1.20852e-08 1.10302e-09 0.0005 1.46608e-07 
143 1 0.0328687 0.0232702 0.012478 0.000939691 0.00425849 -0.0178772 -2.83268e-09 -6.16527e-09 -4.85392e-09 0.0005 1.46608e-07 
147 1 0.0304206 0.0169147 0.0076582 -10.5653 3.77108 -4.45998 4.30498 -4.3348 -3.98493 0.0005 1.46608e-07 
149 1 0.0570019 0.0175547 0.00590579 4.29088e-15 1.19474e-14 2.80766e-13 -4.20506e-20 5.78894e-20 -1.90582e-21 0.0005 1.46608e-07 
150 1 0.0201711 0.0217063 0.00812631 0.000132163 -0.00773336 -0.00563517 -4.18656e-07 5.84789e-08 -4.10995e-08 0.0005 1.46608e-07 
151 1 0.0234787 0.0218667 0.0149377 0.00410934 -0.008102 0.00456245 0 0 -1.43822e-06 0.0005 1.46608e-07 
157 1 0.0205559 0.0233746 0.0111287 0.00068883 -0.00242795 -0.0188639 -5.64129e-09 -4.67902e-09 -8.52295e-09 0.0005 1.46608e-07 
158 1 0.0229162 0.0161038 0.014829 0.0043373 0.00194938 0.00267149 1.96395e-08 -7.68394e-08 -4.67543e-08 0.0005 1.46608e-07 
160 1 0.0376999 0.0212753 0.00782014 0.00102059 -0.0092859 -0.00657454 -9.44596e-09 4.74509e-09 2.7448e-08 0.0005 1.46608e-07 
161 1 0.0221348 0.00230077 0.0435188 9.74157e-317 -9.69799e-317 9.23294e-13 0 0 0 0.0005 1.46608e-07 
165 1 0.0245222 0.0163608 0.0150384 0.00542845 0.0043389 0.00240154 -6.60743e-09 9.116e-09 4.10362e-08 0.0005 1.46608e-07 
166 1 0.0317636 0.0215604 0.00796797 0.0010937 -0.0153783 -0.0125358 -4.0386e-06 2.2038e-06 1.18857e-06 0.0005 1.46608e-07 
167 1 0.015359 0.0229174 0.0137009 0.00240009 0.00150683 -0.000565792 -5.57717e-09 6.65098e-09 2.17638e-08 0.0005 1.46608e-07 
170 1 0.021179 0.0141741 0.0134511 -0.00224161 -0.000214397 -0.00238327 -5.40818e-08 -2.78576e-08 -1.03198e-08 0.0005 1.46608e-07 
171 1 0.0174493 0.0240385 0.0131094 3.41343e-05 0.000660177 -0.000393868 -3.74016e-07 6.61193e-08 -3.76355e-07 0.0005 1.46608e-07 
173 1 0.0465026 0.0201103 0.00581477 1.06601e-14 -2.29122e-14 -2.37919e-13 -2.43522e-21 -3.33519e-21 4.23516e-22 0.0005 1.46608e-07 
174 1 0.0235342 0.0147647 0.0121113 0.000265589 0.00335166 0.0203279 -1.75343e-09 1.24359e-08 6.23951e-09 0.0005 1.46608e-07 
179 1 0.067984 0.0193424 0.00575613 3.88746e-15 7.53515e-15 2.61625e-13 3.52379e-21 2.6933e-21 0 0.0005 1.46608e-07 
185 1 0.0343838 0.0179899 0.0155806 0.000123712 0.0208769 0.00607024 -1.63503e-09 5.96969e-09 -1.01972e-08 0.0005 1.46608e-07 
186 1 0.0324502 0.0232463 0.0103754 0.000845808 -0.00547505 -0.0178427 -6.12841e-09 -1.63886e-08 -3.36811e-08 0.0005 1.46608e-07 
187 1 0.0315812 0.0207981 0.00758019 0.000940163 -0.0178615 -0.00650458 -9.56295e-07 -2.46197e-07 -2.329e-07 0.0005 1.46608e-07 
191 1 0.0195766 0.0206796 0.00757258 -0.000732459 -0.0199801 -0.00838291 -4.8599e-10 -9.21538e-09 5.14613e-09 0.0005 1.46608e-07 
193 1 0.0245476 0.0198163 0.00585259 2.6086e-15 4.18076e-16 -4.25291e-14 0 2.89513e-22 0 0.0005 1.46608e-07 
194 1 0.0308927 0.0177846 0.00736028 0.000241032 -0.0201307 0.00602208 -9.24993e-10 -4.65542e-09 1.2542e-08 0.0005 1.46608e-07 
197 1 0.0331323 0.0229419 0.0133937 0.000431652 0.00995581 -0.0187327 -1.30915e-08 6.93549e-09 -4.64523e-08 0.0005 1.46608e-07 
200 1 0.021864 0.0207234 0.0156299 0.000331236 0.0198866 -0.00817775 -6.26977e-10 -2.82396e-09 -1.4912e-08 0.0005 1.46608e-07 
205 1 0.0333471 0.0221451 0.0145081 0.000202444 0.0182325 -0.0149433 7.10482e-12 -8.21747e-09 -7.92474e-09 0.0005 1.46608e-07 
206 1 0.0228835 0.0226367 0.0146502 0.0012256 0.0018657 -0.0019606 1.22732e-06 -1.49922e-06 -9.69698e-06 0.0005 1.46608e-07 
215 1 0.026935 0.0188837 0.00598981 1.43032e-14 2.30452e-15 -2.33189e-13 -3.57342e-22 3.12674e-22 0 0.0005 1.46608e-07 
225 1 0.0227465 0.0211447 0.0154177 2.59112e-06 0.0201254 -0.0107463 3.77452e-11 2.68275e-08 -3.38934e-08 0.0005 1.46608e-07 
226 1 0.0388176 0.0232957 0.0122945 0.000461067 0.00317677 -0.0195976 -5.33151e-07 6.48739e-07 -1.16267e-07 0.0005 1.46608e-07 
227 1 0.0275568 0.0215306 0.0149832 0.00095338 0.0146319 -0.0115311 -3.89603e-09 4.89304e-09 -1.80704e-08 0.0005 1.46608e-07 
229 1 0.0360471 0.0150621 0.00984597 0.00110594 -0.00744644 0.0161769 2.07639e-08 3.40651e-08 -1.11015e-07 0.0005 1.46608e-07 
232 1 0.0221996 0.00109062 0.0435188 9.58743e-317 9.68145e-317 4.97437e-14 0 0 0 0.0005 1.46608e-07 
235 1 0.0249169 0.0216568 0.0160607 -0.00101071 0.00195956 -2.50046e-05 -4.14735e-07 4.88525e-07 -3.37713e-07 0.0005 1.46608e-07 
237 1 0.035745 0.0148584 0.0109401 0.00163757 -0.000377552 0.0148563 -1.18518e-08 2.78524e-09 9.69334e-08 0.0005 1.46608e-07 
240 1 0.0236793 0.0147407 0.0112472 0.000245582 -0.0021737 0.0212915 -3.23602e-10 1.00488e-08 5.57876e-09 0.0005 1.46608e-07 
241 1 0.0277976 0.0207376 0.015503 0.00049174 0.0197903 -0.00759144 3.84433e-10 -3.25613e-10 -1.1804e-08 0.0005 1.46608e-07 
242 1 0.0263441 0.0230635 0.00992474 0.00294929 -0.0047786 -0.013522 -2.73388e-07 5.62895e-07 1.16763e-06 0.0005 1.46608e-07 
247 1 0.0403288 0.0184305 0.0156242 0.00272514 0.0138434 0.000839362 1.74194e-09 1.28528e-08 1.94015e-08 0.0005 1.46608e-07 
252 1 0.0212648 0.0226989 0.0140062 0.000788358 0.010594 -0.015283 -1.38646e-07 -1.56776e-06 1.15203e-06 0.0005 1.46608e-07 
253 1 0.0895649 0.0187731 0.00575225 -1.31895e-14 1.89995e-14 2.53768e-13 3.75871e-20 4.40192e-20 -1.69407e-21 0.0005 1.46608e-07 
256 1 0.0243893 0.0160426 0.00841571 0.00166792 -0.0107828 0.0106619 -9.55108e-08 4.68134e-07 -6.9284e-07 0.0005 1.46608e-07 
257 1 0.0244537 0.015512 0.0090151 0.000908894 -0.00757952 0.0127869 1.45869e-06 -2.91691e-08 -8.46942e-08 0.0005 1.46608e-07 
258 1 0.0340852 0.0190546 0.0157881 0.000295235 0.0175465 0.00112764 9.3577e-06 -1.86797e-06 -2.12285e-06 0.0005 1.46608e-07 
260 1 0.108836 0.0200055 0.00584234 7.67057e-16 -1.27676e-15 -6.97332e-15 0 0 0 0.0005 1.46608e-07 
263 1 0.0221409 0.0228624 0.0138062 0.00650896 0.00225295 -0.00532165 -5.44683e-06 4.20069e-06 -2.5237e-06 0.0005 1.46608e-07 
268 1 0.0189077 0.0146273 0.0119289 0.000189913 -0.000278192 0.000468338 2.47346e-09 -1.04783e-08 1.49982e-08 0.0005 1.46608e-07 
269 1 0.0282383 0.0185778 0.015797 0.00123524 0.0174213 0.00194661 2.91169e-06 -2.61875e-06 -4.34818e-06 0.0005 1.46608e-07 
270 1 0.0260935 0.022189 0.00862625 0.000232221 -0.0126268 -0.0122164 -2.08691e-06 -8.94465e-07 -1.22567e-06 0.0005 1.46608e-07 
271 1 0.0301009 0.0151626 0.00971229 0.000405342 -0.00787376 0.018382 -4.26375e-09 -3.20321e-09 2.29553e-08 0.0005 1.46608e-07 
272 1 0.0243092 0.0223035 0.0155975 0.000821766 -0.000233225 0.00054755 -5.90956e-07 5.05855e-07 -4.82723e-07 0.0005 1.46608e-07 
274 1 0.0194051 0.0243062 0.0133085 1.69968e-05 -4.74456e-05 -0.000233609 -9.24874e-07 2.07796e-07 -7.52421e-08 0.0005 1.46608e-07 
275 1 0.0261348 0.0227578 0.00926582 0.00253867 -0.00653555 -0.00987927 1.1576e-06 4.23075e-07 2.24823e-07 0.0005 1.46608e-07 
277 1 0.0221231 0.022295 0.0144859 0.00159986 0.00746516 -0.0073501 -5.82167e-07 1.56293e-06 -4.00964e-06 0.0005 1.46608e-07 
282 1 0.0210709 0.0231441 0.0131675 0.000249655 0.00548472 -0.0153423 6.2312e-07 -4.31501e-07 1.63049e-06 0.0005 1.46608e-07 
284 1 0.00937694 0.00505359 0.0435188 -9.68799e-317 -9.69932e-317 9.23294e-13 0 0 0 0.0005 1.46608e-07 
288 1 0.0202243 0.0138766 0.0134407 -0.00566963 0.0117152 -0.0294136 -5.88537e-09 2.7314e-07 -6.26614e-07 0.0005 1.46608e-07 
291 1 0.0196059 0.0196365 0.00725943 -0.00038204 -0.0216295 -0.00611369 8.17408e-09 -3.33299e-09 7.85685e-09 0.0005 1.46608e-07 
294 1 0.0195379 0.0141278 0.0127583 -0.0111358 0.0139202 -0.0231091 -5.61189e-08 3.25796e-07 -5.40797e-07 0.0005 1.46608e-07 
299 1 0.0254808 0.018723 0.00589902 -2.0764e-14 -3.41701e-15 3.38792e-13 -4.69839e-21 4.33145e-20 0 0.0005 1.46608e-07 
300 1 0.0319641 0.0223034 0.00863195 0.000282489 -0.0137823 -0.0151622 -1.69708e-09 -1.31032e-08 2.82196e-10 0.0005 1.46608e-07 
