ITEM: TIMESTEP
18400000
ITEM: NUMBER OF ATOMS
110
ITEM: BOX BOUNDS ff ff ff
-0.02 0.43
-0.02 0.06
-0.02 0.07
ITEM: ATOMS id type x y z vx vy vz fx fy fz radius mass 
1 1 0.0185086 0.0234829 0.011824 1.94534e-07 0.000138654 -0.000137014 4.40582e-11 7.95459e-09 -8.57441e-09 0.0005 1.46608e-07 
2 1 0.0176162 0.0238829 0.0127109 -2.55157e-06 -2.27184e-05 -7.16681e-05 -8.89762e-10 -1.22353e-09 -3.51668e-09 0.0005 1.46608e-07 
4 1 0.0188115 0.0161336 0.0148617 2.14958e-05 0.0173967 0.0150886 -5.07986e-09 2.82243e-09 1.53256e-08 0.0005 1.46608e-07 
5 1 0.0552425 0.0189586 0.00589144 -9.84487e-15 -1.33744e-14 -1.90504e-13 -2.24993e-22 -5.55865e-22 0 0.0005 1.46608e-07 
15 1 0.00938048 0.0183393 0.00587271 3.6438e-15 5.54648e-16 -3.69009e-14 1.21761e-21 -3.2988e-21 0 0.0005 1.46608e-07 
16 1 0.0260148 0.0196703 0.00594114 1.76442e-14 2.84057e-15 -2.87664e-13 -6.61744e-23 -1.27055e-21 0 0.0005 1.46608e-07 
17 1 0.0371862 0.0150103 0.0129641 0.000842923 0.00715812 0.0179152 -6.60434e-09 1.49286e-08 1.13691e-08 0.0005 1.46608e-07 
18 1 0.0366849 0.0218066 0.0435188 -9.6879e-317 9.73506e-317 2.68131e-13 0 0 0 0.0005 1.46608e-07 
20 1 0.0428755 0.0158825 0.0144216 0.000196108 0.0145173 0.0165753 6.12318e-08 -6.19397e-09 -4.32711e-08 0.0005 1.46608e-07 
24 1 0.0350414 0.022788 0.0136644 0.00139922 0.00828273 -0.0157555 -1.21313e-08 6.53138e-09 -2.84148e-08 0.0005 1.46608e-07 
25 1 0.0238136 0.0204743 0.015709 0.000347864 0.0204034 -0.00691687 -7.49647e-10 -1.6995e-09 -1.54483e-08 0.0005 1.46608e-07 
27 1 0.000591717 0.0149731 0.0435188 9.71467e-317 9.75789e-317 -8.23806e-13 0 0 0 0.0005 1.46608e-07 
28 1 0.0406128 0.0233648 0.0116091 6.2761e-05 0.00140684 -0.0225748 -1.45447e-09 -1.14835e-08 -8.10627e-09 0.0005 1.46608e-07 
32 1 0.0199317 0.0155529 0.0144539 -0.000126716 0.0144863 0.0191082 -3.49805e-09 1.38169e-08 -1.03298e-09 0.0005 1.46608e-07 
33 1 0.0263845 0.0161235 0.00832226 0.000186484 -0.0165247 0.0142244 -1.55998e-09 2.71998e-09 1.25744e-08 0.0005 1.46608e-07 
37 1 0.0389533 0.0185822 0.00719043 -0.000109203 -0.0224591 0.000971942 -5.58532e-10 -2.44952e-09 1.22322e-08 0.0005 1.46608e-07 
41 1 0.0203436 0.0160157 0.00843425 0.000635091 -0.0137686 0.0139428 -4.98767e-09 -5.51557e-09 2.20796e-08 0.0005 1.46608e-07 
44 1 0.0307141 0.0163778 0.0148605 0.000514707 0.0168866 0.0138059 -1.15021e-08 1.12303e-08 5.77868e-09 0.0005 1.46608e-07 
47 1 0.019782 0.0240969 0.0129032 -4.85323e-06 0.000134481 -0.000170791 -3.32479e-08 1.03968e-08 -8.1374e-09 0.0005 1.46608e-07 
49 1 0.003617 0.0285782 0.0435188 -9.68849e-317 -9.75601e-317 2.88878e-12 0 0 0 0.0005 1.46608e-07 
52 1 0.0422965 0.0179 0.0156424 0.000638801 0.0134398 0.0047123 4.98983e-09 -4.43896e-08 -8.99391e-09 0.0005 1.46608e-07 
57 1 0.0177449 0.0174882 0.00600758 2.62532e-15 1.02263e-14 2.12816e-14 -2.8058e-21 -9.52912e-22 6.35275e-22 0.0005 1.46608e-07 
59 1 0.0411985 0.0223983 0.0141544 3.64066e-05 0.0144462 -0.0164278 -1.23975e-09 -7.45807e-09 -8.61936e-09 0.0005 1.46608e-07 
62 1 0.0170353 0.0141768 0.0134554 0.000346409 -0.000210134 0.000339913 1.34253e-09 -1.03625e-08 2.81273e-08 0.0005 1.46608e-07 
63 1 0.0173633 0.0234822 0.0118304 2.70794e-05 0.000120761 -0.000141323 1.26822e-09 6.22774e-09 -7.29225e-09 0.0005 1.46608e-07 
65 1 0.040113 0.0228635 0.00961604 -0.000218743 -0.0109717 -0.0211873 -2.69969e-08 -2.26584e-08 -5.8828e-08 0.0005 1.46608e-07 
67 1 0.0407932 0.0232525 0.0125985 0.000668901 0.00502162 -0.019103 -1.15948e-09 -9.65633e-09 -2.46713e-10 0.0005 1.46608e-07 
68 1 0.0414489 0.0216393 0.0148317 0.00111628 0.0142991 -0.0115416 3.0464e-09 -3.12872e-08 2.08679e-08 0.0005 1.46608e-07 
73 1 0.033606 0.0194093 0.00581187 -7.03417e-15 -4.06764e-14 1.57635e-13 1.01498e-19 -4.61104e-20 -7.19978e-21 0.0005 1.46608e-07 
74 1 0.0316095 0.0147645 0.0113642 0.000598763 -0.000263218 0.0134192 -0.00197419 0.015367 -0.00254379 0.0005 1.46608e-07 
76 1 0.0247072 0.0165194 0.0151598 0.00552359 -0.00092414 -0.00219278 2.30473e-08 -9.66503e-08 -4.81341e-08 0.0005 1.46608e-07 
79 1 0.054387 0.0178804 0.00601135 -1.30046e-14 -1.76672e-14 -2.51655e-13 4.89691e-22 -7.67624e-22 0 0.0005 1.46608e-07 
84 1 0.0328067 0.0180737 0.00728618 0.00157143 -0.0108761 0.00131146 6.62534e-09 1.98199e-08 -2.72776e-09 0.0005 1.46608e-07 
87 1 0.0392395 0.0197712 0.00725426 0.00024374 -0.0201666 -0.00309798 -1.32253e-09 -9.81613e-09 9.33782e-09 0.0005 1.46608e-07 
88 1 0.0386929 0.0175579 0.00743585 0.000177352 -0.0200497 0.0070811 -8.7462e-10 -3.39355e-09 1.26469e-08 0.0005 1.46608e-07 
89 1 0.0418516 0.0198563 0.0157364 0.00101844 0.0123687 -0.00129414 2.49699e-09 -3.44323e-08 -5.51415e-09 0.0005 1.46608e-07 
90 1 0.031296 0.0150261 0.0126453 0.00225053 0.0053125 0.0151891 -1.54335e-08 2.36605e-08 4.09477e-08 0.0005 1.46608e-07 
92 1 0.0380795 0.0154919 0.00911971 0.00017875 -0.00939678 0.016041 1.77015e-09 -2.37138e-08 9.36882e-08 0.0005 1.46608e-07 
97 1 0.019322 0.0216741 0.00805243 -0.0011869 -0.00683665 -0.00423475 -9.84611e-09 -4.44047e-08 -3.5778e-08 0.0005 1.46608e-07 
103 1 0.0361109 0.0191143 0.0157581 0.000381714 0.0238506 0.00345023 -6.11426e-07 3.15919e-06 -1.60295e-07 0.0005 1.46608e-07 
106 1 0.0198885 0.0150642 0.00987971 0.000563188 -0.00726242 0.0159024 1.88465e-08 2.59476e-08 3.0451e-08 0.0005 1.46608e-07 
108 1 0.0214483 0.0168437 0.00645098 -2.38931e-14 5.08937e-14 1.8433e-13 3.10226e-20 3.47284e-20 -4.87044e-21 0.0005 1.46608e-07 
109 1 0.0271193 0.01917 0.00715434 0.00104549 -0.0117144 -0.00145371 -1.98367e-08 1.4568e-08 6.07998e-08 0.0005 1.46608e-07 
112 1 0.0336641 0.0216502 0.00802586 0.00206305 -0.00895164 -0.00725186 1.55991e-08 6.35692e-08 4.33598e-08 0.0005 1.46608e-07 
121 1 0.0586827 0.0172628 0.00598816 1.03765e-14 -2.15362e-14 -2.65e-13 2.19964e-20 -1.61466e-21 1.05879e-21 0.0005 1.46608e-07 
122 1 0.043493 0.0148074 0.0117633 0.000166971 0.000786655 0.0217686 -2.60314e-09 1.1208e-08 5.43589e-09 0.0005 1.46608e-07 
124 1 0.0161701 0.0143773 0.0139149 0.000576173 -0.00110602 0.00116039 -5.4514e-09 -9.51798e-09 2.2085e-08 0.0005 1.46608e-07 
125 1 0.0431179 0.0151384 0.0132535 0.00022153 0.0085127 0.0190807 -9.77966e-10 1.2119e-08 1.32354e-09 0.0005 1.46608e-07 
128 1 0.0303903 0.00406748 0.0435188 -9.67556e-317 -9.75879e-317 -3.22607e-12 0 0 0 0.0005 1.46608e-07 
130 1 0.0292709 0.0222583 0.0143461 0.000265712 0.0141516 -0.0157143 -8.10037e-10 -3.8169e-09 -1.08002e-08 0.0005 1.46608e-07 
131 1 0.0420708 0.0210902 0.0153213 0.0017218 0.0106106 -0.00752779 -2.84453e-08 -1.57105e-08 -1.6141e-08 0.0005 1.46608e-07 
133 1 0.0240695 0.0193307 0.01594 0.000422848 0.0210634 -0.00121857 -2.58487e-10 4.90413e-10 -1.46484e-08 0.0005 1.46608e-07 
135 1 0.0421092 0.018912 0.0157635 0.00029627 0.021336 0.000855942 -2.25278e-08 1.63767e-08 -2.25246e-08 0.0005 1.46608e-07 
137 1 0.0465254 0.0191962 0.00590655 2.39464e-15 1.33711e-14 9.20546e-14 -9.60191e-21 5.82335e-22 2.11758e-22 0.0005 1.46608e-07 
139 1 0.0318532 0.0149893 0.0100821 0.00023724 -0.00596229 0.018638 -5.31847e-10 8.91904e-09 1.23256e-08 0.0005 1.46608e-07 
141 1 0.0294814 0.0214783 0.0150659 0.00075089 0.00684338 -0.00498714 8.20872e-09 -2.03529e-08 2.79563e-08 0.0005 1.46608e-07 
142 1 0.0438435 0.0151267 0.00997727 8.4694e-05 -0.00761015 0.0198521 -3.42446e-10 8.8587e-09 7.88133e-09 0.0005 1.46608e-07 
143 1 0.0364467 0.0173163 0.0153041 0.00128443 0.0173045 0.00674059 -9.20603e-09 3.24262e-08 6.77937e-09 0.0005 1.46608e-07 
147 1 0.0330928 0.0192025 0.00727735 0.000112559 -0.0223124 -0.00197086 1.23923e-10 -3.48447e-09 1.18281e-08 0.0005 1.46608e-07 
149 1 0.0584376 0.0191695 0.00582359 8.107e-15 -1.68599e-14 -2.07263e-13 -1.24871e-20 -4.76456e-21 -2.11758e-22 0.0005 1.46608e-07 
150 1 0.0198801 0.0141403 0.0127375 0.00460815 -0.000572209 0.000949786 -4.54825e-08 -2.35265e-08 4.02252e-08 0.0005 1.46608e-07 
157 1 0.0157727 0.0235286 0.0143116 0.00264735 0.00208421 0.00021981 1.74743e-08 1.76314e-08 9.39983e-09 0.0005 1.46608e-07 
158 1 0.020084 0.0201843 0.0061153 5.51551e-15 -2.48135e-15 5.04897e-14 -7.6233e-21 -8.08652e-21 2.11758e-22 0.0005 1.46608e-07 
160 1 0.04097 0.0229448 0.0133935 0.000698302 0.00930812 -0.0161675 -6.0854e-09 -1.33358e-08 -1.32257e-08 0.0005 1.46608e-07 
161 1 0.0221348 0.00230077 0.0435188 9.74157e-317 -9.69799e-317 9.23294e-13 0 0 0 0.0005 1.46608e-07 
165 1 0.201805 0.0186174 0.00570934 -3.8561e-20 4.0743e-22 8.61844e-22 0 0 0 0.0005 1.46608e-07 
166 1 0.0345448 0.0233899 0.0113428 0.00010541 -0.000362708 -0.0218537 -6.1456e-09 -1.22311e-08 -1.37948e-08 0.0005 1.46608e-07 
167 1 0.0190004 0.01543 0.0141768 -2.10118e-05 0.0135162 0.0191489 -8.0846e-11 2.12437e-08 -1.37028e-08 0.0005 1.46608e-07 
173 1 0.0801305 0.0198856 0.00588445 -9.52843e-15 -2.67156e-14 1.14756e-13 -3.97047e-23 0 0 0.0005 1.46608e-07 
174 1 0.0212221 0.019882 0.00728099 -5.97791e-05 -0.0224475 -0.00567168 1.08574e-10 -6.21073e-09 1.17403e-08 0.0005 1.46608e-07 
179 1 0.067984 0.0193424 0.00575613 3.89625e-15 7.53197e-15 2.61625e-13 2.15663e-20 -1.00254e-20 0 0.0005 1.46608e-07 
185 1 0.0378322 0.014999 0.0101151 0.00202757 -0.003724 0.0139578 -1.06391e-07 -1.96974e-08 1.25922e-07 0.0005 1.46608e-07 
186 1 0.035527 0.0212198 0.0150842 0.00109798 0.0186228 -0.0134757 2.52875e-08 6.09278e-08 -5.56225e-08 0.0005 1.46608e-07 
187 1 0.0343041 0.0232376 0.0104162 -5.20533e-05 -0.00607519 -0.0194222 -2.96299e-08 -2.65191e-08 -5.63574e-08 0.0005 1.46608e-07 
191 1 0.02344 0.0223097 0.0145438 -0.00112569 0.0504793 -0.0590344 0 0 -1.43822e-06 0.0005 1.46608e-07 
193 1 0.0245476 0.0198163 0.00585259 2.60864e-15 4.12963e-16 -4.25292e-14 6.61744e-23 9.94437e-21 0 0.0005 1.46608e-07 
194 1 0.0334146 0.0208402 0.00763668 0.00111224 -0.0163875 -0.00604916 -1.81372e-09 -9.43522e-09 6.35752e-09 0.0005 1.46608e-07 
197 1 0.0366611 0.0164355 0.0149285 0.00318206 0.00741809 0.00602988 2.63886e-08 -1.23016e-07 -7.38706e-08 0.0005 1.46608e-07 
200 1 0.0206261 0.0146257 0.0119317 -0.00830143 -0.000585095 0.000971425 1.83856e-07 -1.3206e-08 2.16671e-08 0.0005 1.46608e-07 
205 1 0.036805 0.0202346 0.00608327 3.03774e-15 -9.75542e-15 4.51442e-14 1.73629e-19 3.29284e-20 -2.75286e-21 0.0005 1.46608e-07 
215 1 0.026935 0.0188837 0.00598981 1.43032e-14 2.30295e-15 -2.33189e-13 6.08805e-22 -1.33507e-21 0 0.0005 1.46608e-07 
225 1 0.0267452 0.0177215 0.0074505 0.000833043 -0.0228654 0.00497535 -3.316e-08 3.80345e-08 -2.65237e-08 0.0005 1.46608e-07 
226 1 0.0416629 0.0206135 0.0155256 0.00204755 0.00432244 -0.00101949 2.31038e-08 -2.09547e-07 1.43337e-07 0.0005 1.46608e-07 
227 1 0.0299618 0.0195193 0.0157372 0.00445578 0.00910881 -0.00296243 -3.08183e-09 -1.00159e-07 5.23249e-08 0.0005 1.46608e-07 
229 1 0.0396937 0.0217401 0.00811459 0.00042576 -0.016252 -0.0123846 -2.30464e-09 -1.31459e-08 2.61691e-09 0.0005 1.46608e-07 
232 1 0.0221996 0.00109062 0.0435188 9.58743e-317 9.68145e-317 4.97437e-14 0 0 0 0.0005 1.46608e-07 
237 1 0.0394438 0.0207931 0.00754854 0.000335142 -0.0171493 -0.0087187 1.53036e-08 9.32091e-08 8.81715e-08 0.0005 1.46608e-07 
241 1 0.0302128 0.0184792 0.0157644 5.94738e-05 0.0216001 0.00405299 -7.89574e-10 5.12932e-09 -1.03527e-08 0.0005 1.46608e-07 
242 1 0.0288144 0.0232099 0.0127046 0.000432287 0.00546864 -0.0164165 4.31416e-09 -1.94453e-08 7.8158e-09 0.0005 1.46608e-07 
247 1 0.0425471 0.0168298 0.0151439 0.000223796 0.0178194 0.0107076 -1.27923e-09 1.04784e-08 -5.80898e-09 0.0005 1.46608e-07 
252 1 0.0557897 0.0172859 0.0059806 9.82452e-15 1.33372e-14 1.8999e-13 2.63374e-21 -3.97047e-22 0 0.0005 1.46608e-07 
253 1 0.0895649 0.0187731 0.00575225 -1.30494e-14 1.90152e-14 2.53774e-13 4.29869e-20 6.40304e-20 -2.32934e-21 0.0005 1.46608e-07 
256 1 0.0279832 0.0226115 0.00897949 0.000333926 -0.0118887 -0.0155726 -5.80425e-09 -6.70679e-08 -5.85921e-08 0.0005 1.46608e-07 
257 1 0.0276237 0.0214485 0.00793365 0.00113771 -0.0148463 -0.00964618 -6.83247e-09 -1.14823e-08 4.57894e-10 0.0005 1.46608e-07 
258 1 0.0374884 0.0148333 0.0117917 6.48567e-05 0.000648928 0.022457 -8.52567e-10 1.1147e-08 2.66842e-09 0.0005 1.46608e-07 
260 1 0.108836 0.0200055 0.00584234 7.53171e-16 -1.27011e-15 -6.9765e-15 -2.64698e-23 1.36055e-20 -2.75286e-21 0.0005 1.46608e-07 
268 1 0.0172535 0.0146136 0.014328 0.00169285 -0.00133575 0.000564639 -1.8313e-08 -5.24211e-09 2.88529e-08 0.0005 1.46608e-07 
269 1 0.0309601 0.0155769 0.0140498 0.000403871 0.00968439 0.0157696 1.58447e-09 8.86201e-09 -1.4817e-08 0.0005 1.46608e-07 
270 1 0.028268 0.0231931 0.0102368 0.000381498 -0.00640758 -0.0202817 -6.63918e-09 -1.10127e-08 -5.12575e-09 0.0005 1.46608e-07 
271 1 0.0324991 0.0167167 0.00787256 0.000590683 -0.0114654 0.00683478 3.22858e-09 1.75705e-08 -1.47702e-08 0.0005 1.46608e-07 
272 1 0.0243206 0.0217023 0.0150776 -0.0100133 0.0112937 -0.00752436 -5.29399e-09 5.06261e-09 -8.16993e-09 0.0005 1.46608e-07 
274 1 0.0195365 0.0146248 0.0119331 0.00462451 -0.000568949 0.000945912 -9.99026e-09 -1.49062e-08 2.87839e-08 0.0005 1.46608e-07 
275 1 0.0285899 0.0233654 0.0114978 -0.00106147 -4.82559e-05 -0.0244369 -1.38104e-08 2.4516e-08 -2.54075e-08 0.0005 1.46608e-07 
277 1 0.0208046 0.0178659 0.0073625 0.00103173 -0.0201175 0.0028951 1.4817e-08 7.49886e-09 2.92317e-08 0.0005 1.46608e-07 
284 1 0.00937694 0.00505359 0.0435188 -9.68799e-317 -9.69932e-317 9.23294e-13 0 0 0 0.0005 1.46608e-07 
288 1 0.0207816 0.0158474 0.0148417 -1.47952e-05 0.0178133 0.0163582 2.93226e-10 -2.93945e-09 -3.34735e-09 0.0005 1.46608e-07 
291 1 0.0245687 0.0182335 0.0158819 1.54697e-07 0.0202787 0.00357542 -5.37808e-10 2.0959e-09 -1.35737e-08 0.0005 1.46608e-07 
294 1 0.0220735 0.0229255 0.00959667 0.00319862 0.000327966 -0.00334489 -2.77133e-05 -2.19141e-06 -7.18519e-07 0.0005 1.46608e-07 
299 1 0.0254808 0.018723 0.00589902 -2.07916e-14 -3.25917e-15 3.38791e-13 -3.58136e-20 2.78884e-19 6.35275e-22 0.0005 1.46608e-07 
300 1 0.0347571 0.0232823 0.012373 0.00131335 0.00332617 -0.0174769 -1.17518e-08 3.79258e-08 -1.78354e-07 0.0005 1.46608e-07 
