ITEM: TIMESTEP
24600000
ITEM: NUMBER OF ATOMS
107
ITEM: BOX BOUNDS ff ff ff
-0.02 0.43
-0.02 0.06
-0.02 0.07
ITEM: ATOMS id type x y z vx vy vz fx fy fz radius mass 
1 1 0.0211845 0.0146895 0.012386 0.00434523 0.00134849 0.002705 1.75397e-08 -8.72733e-09 5.68193e-08 0.0005 1.46608e-07 
2 1 0.0242546 0.020213 0.00583854 -9.0859e-15 -1.46379e-15 1.48131e-13 0 6.94832e-23 0 0.0005 1.46608e-07 
4 1 0.0173306 0.0141458 0.0133483 0.000603438 -0.000780756 0.00172411 7.13183e-09 -1.04532e-08 2.36886e-08 0.0005 1.46608e-07 
5 1 0.0552529 0.0189972 0.0058882 -1.33238e-17 -1.80647e-17 -2.57125e-16 2.91168e-22 2.64698e-23 0 0.0005 1.46608e-07 
15 1 0.00938048 0.0183393 0.00587271 3.6457e-15 5.42032e-16 -3.69009e-14 -1.58819e-22 6.04834e-21 0 0.0005 1.46608e-07 
16 1 0.0260391 0.0196534 0.00594246 2.09855e-14 3.38091e-15 -3.42138e-13 0 -1.57164e-22 0 0.0005 1.46608e-07 
17 1 0.0436 0.0160121 0.014532 0.157317 -0.0382723 0.106791 0.191922 -0.409977 0.627461 0.0005 1.46608e-07 
18 1 0.0366849 0.0218066 0.0435188 -9.6879e-317 9.73506e-317 2.68131e-13 0 0 0 0.0005 1.46608e-07 
20 1 0.0486275 0.0198413 0.0157864 0.00659725 -9.52745e-05 0.00127512 3.73644e-05 -1.74851e-06 -3.47939e-05 0.0005 1.46608e-07 
24 1 0.0422432 0.0215303 0.0149452 -0.000460438 0.0184257 -0.0118936 2.34173e-08 -3.63501e-08 5.52579e-08 0.0005 1.46608e-07 
25 1 0.0339249 0.0173116 0.00624552 -9.26608e-16 -9.4474e-15 -2.80524e-14 1.52506e-19 7.85623e-20 -3.3246e-20 0.0005 1.46608e-07 
27 1 0.000591717 0.0149731 0.0435188 9.71467e-317 9.75789e-317 -8.23806e-13 0 0 0 0.0005 1.46608e-07 
28 1 0.0463856 0.0214207 0.0079461 0.00491217 0.00179546 -0.002392 4.49762e-08 3.31634e-07 1.31289e-07 0.0005 1.46608e-07 
32 1 0.0364748 0.0208476 0.00623738 4.37253e-15 -1.48262e-14 6.83465e-14 -2.38228e-21 3.17637e-22 2.11758e-22 0.0005 1.46608e-07 
33 1 0.0317158 0.0155846 0.0140761 0.000233905 0.010371 0.0160803 7.17402e-10 1.09844e-08 -1.19416e-08 0.0005 1.46608e-07 
37 1 0.0450031 0.0159133 0.00855531 0.00127558 -0.00909945 0.0124218 3.44392e-10 -5.19014e-09 1.88072e-08 0.0005 1.46608e-07 
41 1 0.027854 0.0190099 0.007163 0.00128926 -0.0169992 0.000528832 -1.13522e-08 -3.21613e-08 2.12095e-08 0.0005 1.46608e-07 
44 1 0.0367878 0.019252 0.0157582 -0.000291896 0.0224467 0.00139099 2.67069e-10 2.42286e-09 -1.09251e-08 0.0005 1.46608e-07 
47 1 0.0212411 0.0165877 0.0079412 0.000150864 -0.0175214 0.0119074 -4.16846e-10 -1.31979e-10 1.2766e-08 0.0005 1.46608e-07 
49 1 0.003617 0.0285782 0.0435188 -9.68849e-317 -9.75601e-317 2.88878e-12 0 0 0 0.0005 1.46608e-07 
52 1 0.0860181 0.0183082 0.00577269 -1.22767e-15 3.67086e-14 1.26768e-13 -4.44477e-20 -4.76456e-22 -6.35275e-22 0.0005 1.46608e-07 
57 1 0.0177449 0.0174882 0.00600758 2.62639e-15 1.02277e-14 2.12808e-14 2.91168e-22 -5.61159e-21 2.11758e-21 0.0005 1.46608e-07 
59 1 0.0471799 0.0233522 0.010897 0.00165624 -0.00319458 -0.0163947 -7.60588e-09 -1.63308e-08 -1.87634e-08 0.0005 1.46608e-07 
63 1 0.0250352 0.0183649 0.0159063 0.000508368 0.0205388 0.00320881 8.03014e-11 2.59448e-09 -1.54794e-08 0.0005 1.46608e-07 
65 1 0.112778 0.0179068 0.0059233 8.03239e-16 3.4514e-15 1.42e-14 1.23958e-19 -5.0822e-21 -6.35275e-21 0.0005 1.46608e-07 
67 1 0.0465897 0.0220861 0.00839805 0.00382611 -0.00227497 -0.00546856 4.00081e-08 1.88302e-07 1.40418e-07 0.0005 1.46608e-07 
68 1 0.0452523 0.0173614 0.00620617 -3.1212e-15 -1.74661e-14 -1.20236e-13 -1.88068e-20 3.01755e-21 2.11758e-22 0.0005 1.46608e-07 
73 1 0.0349285 0.0181778 0.00592251 6.37784e-16 6.72248e-15 2.00025e-14 -2.90506e-21 -4.76456e-22 4.23516e-22 0.0005 1.46608e-07 
74 1 0.0380664 0.0148705 0.0125068 0.000495544 0.00345233 0.0178277 1.39835e-09 4.23525e-08 5.51704e-08 0.0005 1.46608e-07 
76 1 0.030944 0.0185892 0.0157861 2.91799e-05 0.0223326 0.00357345 -2.44548e-10 4.48343e-09 -1.14105e-08 0.0005 1.46608e-07 
79 1 0.0551402 0.017971 0.00596606 -2.82236e-15 -3.83411e-15 -5.46135e-14 1.32349e-23 2.64698e-23 0 0.0005 1.46608e-07 
84 1 0.0394448 0.0174817 0.00747436 0.000161887 -0.0204236 0.00767646 5.76981e-08 5.57016e-08 1.14642e-08 0.0005 1.46608e-07 
87 1 0.0452141 0.0164564 0.00814106 0.00138122 -0.0073152 0.00435144 -5.20868e-09 -9.27713e-09 4.04597e-09 0.0005 1.46608e-07 
88 1 0.0447463 0.0154209 0.00947755 0.00103225 -0.00595497 0.0124589 5.35163e-10 5.18706e-09 -3.69203e-09 0.0005 1.46608e-07 
89 1 0.0478163 0.0226858 0.0137477 0.000942579 0.00882978 -0.0161238 -5.67503e-09 2.04361e-09 -2.09444e-08 0.0005 1.46608e-07 
90 1 0.0377595 0.0155096 0.0138515 0.00179868 0.0130703 0.0192473 -3.09946e-08 -5.68554e-08 1.30485e-08 0.0005 1.46608e-07 
92 1 0.0443411 0.0148037 0.0115126 0.0225945 0.0170393 0.0145029 0.0272789 0.31861 -0.0243249 0.0005 1.46608e-07 
97 1 0.0263565 0.0147494 0.0115109 0.00291276 0.00217636 0.0128958 -0.03646 0.459443 -0.0774702 0.0005 1.46608e-07 
103 1 0.0426655 0.0197046 0.0157476 0.000183172 0.0208757 -0.00307864 -8.44719e-10 4.56276e-09 -1.20615e-08 0.0005 1.46608e-07 
108 1 0.0214483 0.0168437 0.00645098 -2.39194e-14 5.08855e-14 1.84329e-13 9.32266e-20 7.86152e-20 -5.92923e-21 0.0005 1.46608e-07 
109 1 0.0324651 0.0148071 0.0108997 0.000115689 -0.00343578 0.0212805 -2.8283e-10 1.00396e-08 6.57052e-09 0.0005 1.46608e-07 
112 1 0.0409965 0.0231478 0.0101539 0.000298289 -0.00670509 -0.0189619 6.76298e-08 4.44466e-08 3.16315e-07 0.0005 1.46608e-07 
121 1 0.0586827 0.0172628 0.00598816 1.038e-14 -2.15391e-14 -2.64999e-13 -4.12267e-21 -1.76024e-21 0 0.0005 1.46608e-07 
122 1 0.0792478 0.0194315 0.00576454 1.18509e-14 4.01842e-14 1.70232e-13 1.68017e-19 -1.58819e-20 -8.68209e-21 0.0005 1.46608e-07 
124 1 0.0199905 0.0150154 0.0133999 0.0047497 0.00215293 0.00299884 -1.56833e-09 5.10885e-08 -3.66636e-09 0.0005 1.46608e-07 
125 1 0.0489311 0.0186191 0.0157759 -9.95178e-06 0.0159221 0.000794689 -8.64606e-09 8.01712e-08 3.19046e-08 0.0005 1.46608e-07 
128 1 0.0303903 0.00406748 0.0435188 -9.67556e-317 -9.75879e-317 -3.22607e-12 0 0 0 0.0005 1.46608e-07 
130 1 0.034872 0.0228714 0.00964987 -0.000810797 -0.0106162 -0.0197404 -1.93042e-08 -7.91336e-09 -3.51284e-08 0.0005 1.46608e-07 
131 1 0.0495421 0.0161878 0.0146047 0.00136333 0.0141819 0.0111271 -2.58066e-08 8.38754e-08 4.96438e-08 0.0005 1.46608e-07 
133 1 0.0438472 0.0171169 0.00621343 5.25932e-16 -1.55363e-15 -8.51093e-15 1.8873e-20 -4.07635e-21 1.90582e-21 0.0005 1.46608e-07 
135 1 0.0466365 0.0158101 0.014355 -4.56114e-05 0.013719 0.013941 1.21108e-09 1.61879e-08 5.59999e-09 0.0005 1.46608e-07 
137 1 0.0473953 0.0193073 0.0059321 4.73255e-15 -1.01794e-14 -1.05707e-13 -8.07328e-21 -2.77933e-21 -2.11758e-22 0.0005 1.46608e-07 
139 1 0.0390041 0.0158495 0.0087176 0.000568399 -0.0104686 0.0102078 -6.26342e-07 8.55732e-07 -1.99153e-06 0.0005 1.46608e-07 
141 1 0.0350816 0.0232663 0.0104568 0.000652833 -0.00488173 -0.0173143 -3.88613e-09 -2.29085e-08 -1.75446e-08 0.0005 1.46608e-07 
142 1 0.0497597 0.0154156 0.013865 0.000673336 0.00627906 0.0107563 4.12796e-08 -4.78298e-08 -5.09149e-08 0.0005 1.46608e-07 
143 1 0.0429808 0.0184282 0.0157673 0.000564124 0.0145599 0.00353322 -6.79088e-10 -6.46544e-08 -2.05969e-08 0.0005 1.46608e-07 
147 1 0.0400519 0.020095 0.00729288 0.000647466 -0.0183612 -0.00407902 -3.82544e-09 1.64488e-09 1.19503e-08 0.0005 1.46608e-07 
149 1 0.0584376 0.0191695 0.00582359 8.15145e-15 -1.68344e-14 -2.07264e-13 1.05747e-20 1.03894e-20 -2.11758e-22 0.0005 1.46608e-07 
150 1 0.0201883 0.0147043 0.0124705 0.00435808 0.00185671 0.00300509 1.55825e-09 1.05617e-08 9.66392e-09 0.0005 1.46608e-07 
157 1 0.0204699 0.0140462 0.0131687 0.00416712 0.000190658 0.00150183 -8.75435e-09 -1.94766e-10 2.20635e-09 0.0005 1.46608e-07 
158 1 0.020084 0.0201843 0.0061153 5.51693e-15 -2.4742e-15 5.04899e-14 -1.01909e-20 -4.8175e-21 1.05879e-21 0.0005 1.46608e-07 
160 1 0.0467815 0.0226466 0.00914598 -0.000648917 -0.0089458 -0.0163973 2.48922e-08 1.30292e-08 8.56096e-08 0.0005 1.46608e-07 
161 1 0.0221348 0.00230077 0.0435188 9.74157e-317 -9.69799e-317 9.23294e-13 0 0 0 0.0005 1.46608e-07 
165 1 0.201805 0.0186174 0.00570934 -3.8561e-20 1.12962e-21 -1.30474e-21 0 0 0 0.0005 1.46608e-07 
166 1 0.0416971 0.0230078 0.0132724 0.000884856 0.00727176 -0.0171921 -1.41782e-09 -8.49362e-09 -1.2052e-08 0.0005 1.46608e-07 
167 1 0.0288291 0.0228478 0.00937332 0.00059047 -0.00853482 -0.0154142 5.01159e-09 -7.64172e-09 1.06738e-08 0.0005 1.46608e-07 
173 1 0.0830234 0.0186618 0.00583976 1.15515e-14 3.23717e-14 -1.39058e-13 -4.89691e-22 1.27055e-21 -4.23516e-22 0.0005 1.46608e-07 
174 1 0.0281103 0.0204047 0.00743017 0.00014643 -0.0201747 -0.00696583 -3.55899e-10 -8.7889e-09 8.62779e-09 0.0005 1.46608e-07 
179 1 0.067984 0.0193424 0.00575613 3.89284e-15 7.53017e-15 2.61625e-13 9.26442e-21 -1.22158e-20 2.11758e-22 0.0005 1.46608e-07 
185 1 0.0440229 0.0149181 0.0126443 0.00187594 0.00368434 0.0148601 -1.37874e-08 5.36866e-08 4.94026e-08 0.0005 1.46608e-07 
186 1 0.0424064 0.0207802 0.0154797 0.00117932 0.0155016 -0.00596918 1.11125e-09 -2.75605e-08 -5.17656e-09 0.0005 1.46608e-07 
187 1 0.041255 0.0233711 0.0110861 0.00189901 -0.00194802 -0.0166281 5.61343e-07 3.77211e-07 2.10322e-06 0.0005 1.46608e-07 
191 1 0.028416 0.0215553 0.00796357 0.00450774 -0.00552593 -0.00442834 3.65393e-08 1.67903e-07 9.10911e-08 0.0005 1.46608e-07 
193 1 0.0253288 0.0204564 0.00590683 9.29116e-15 1.4964e-15 -1.51478e-13 -9.26442e-23 0 0 0.0005 1.46608e-07 
194 1 0.0407573 0.0225848 0.00901029 -0.000560435 -0.0126395 -0.0202927 -1.74122e-08 -6.92745e-09 -3.54465e-08 0.0005 1.46608e-07 
197 1 0.0432967 0.0168295 0.0151312 -0.000142404 0.0176262 0.0105983 -5.00063e-10 1.10576e-08 -6.37457e-09 0.0005 1.46608e-07 
200 1 0.0300827 0.0221322 0.0144795 0.000640877 0.0131372 -0.01297 -8.4145e-09 -1.04762e-08 -8.42757e-09 0.0005 1.46608e-07 
205 1 0.0383457 0.0197753 0.00590075 5.99516e-15 -2.89699e-14 1.43232e-13 2.02897e-19 -1.12761e-20 -9.95264e-21 0.0005 1.46608e-07 
215 1 0.026935 0.0188837 0.00598981 1.43031e-14 2.30433e-15 -2.33189e-13 3.97047e-23 -1.479e-21 0 0.0005 1.46608e-07 
225 1 0.0319489 0.0150578 0.0129988 8.68158e-05 0.00715185 0.0203633 -9.49948e-10 1.1987e-08 5.87245e-10 0.0005 1.46608e-07 
226 1 0.0475141 0.0232267 0.0123523 3.31972e-05 0.00523914 -0.0215428 -1.31831e-10 -4.946e-09 -3.8465e-08 0.0005 1.46608e-07 
227 1 0.0359727 0.0223593 0.0141641 -7.24813e-05 0.0161312 -0.0163231 -5.40437e-10 -5.35684e-09 -8.88697e-09 0.0005 1.46608e-07 
229 1 0.0457688 0.0188619 0.00724343 0.00108428 -0.0179476 0.00201874 -7.09224e-09 -1.96212e-08 1.09399e-08 0.0005 1.46608e-07 
232 1 0.0221996 0.00109062 0.0435188 9.58743e-317 9.68145e-317 4.97437e-14 0 0 0 0.0005 1.46608e-07 
237 1 0.0454049 0.0174336 0.00757825 -6.55391e-05 -0.0204808 0.00779696 1.56185e-09 -4.77163e-09 1.74333e-08 0.0005 1.46608e-07 
241 1 0.0363576 0.0208149 0.0153856 0.000334106 0.0173766 -0.0087449 -1.44666e-09 4.82604e-09 -1.5668e-08 0.0005 1.46608e-07 
242 1 0.0345533 0.0219834 0.00827226 0.000814925 -0.0105001 -0.0100552 6.31053e-09 4.08762e-08 4.63455e-08 0.0005 1.46608e-07 
247 1 0.0482642 0.02149 0.0150652 6.65966e-05 0.0191441 -0.0114633 -1.50063e-10 -2.93662e-09 -1.19328e-08 0.0005 1.46608e-07 
252 1 0.0561606 0.0173315 0.00595822 1.40318e-14 1.90624e-14 2.71525e-13 2.11758e-22 -5.29396e-23 0 0.0005 1.46608e-07 
253 1 0.0895649 0.0187731 0.00575225 -1.31305e-14 1.90053e-14 2.53771e-13 3.72086e-19 2.36772e-20 1.69407e-20 0.0005 1.46608e-07 
256 1 0.0332191 0.0164026 0.00809059 0.000669303 -0.0144472 0.00952284 6.67351e-09 5.25001e-08 -3.97707e-08 0.0005 1.46608e-07 
257 1 0.0328142 0.0153501 0.00925864 0.000598183 -0.00824849 0.0140118 -8.57961e-10 -1.38701e-09 5.60319e-08 0.0005 1.46608e-07 
258 1 0.0437821 0.0153905 0.0137268 7.8882e-05 0.0108029 0.0192583 -2.16738e-10 1.28029e-08 -7.37818e-10 0.0005 1.46608e-07 
260 1 0.108836 0.0200055 0.00584234 7.67056e-16 -1.26227e-15 -6.97607e-15 0 3.70577e-22 0 0.0005 1.46608e-07 
268 1 0.027463 0.0175743 0.007437 0.000101813 -0.020862 0.00669238 -5.39106e-10 -1.56695e-09 1.2085e-08 0.0005 1.46608e-07 
269 1 0.0373283 0.0168146 0.0151564 0.00206208 0.0122443 0.00720063 3.34196e-08 -1.48069e-07 -5.96763e-08 0.0005 1.46608e-07 
270 1 0.0335603 0.0180498 0.0072813 0.000935596 -0.0166978 0.00238958 1.47407e-08 1.52465e-08 2.1401e-08 0.0005 1.46608e-07 
271 1 0.0392401 0.0164849 0.00801078 0.000107131 -0.0104261 0.00702678 3.17787e-06 -3.39391e-06 8.92234e-06 0.0005 1.46608e-07 
274 1 0.0239768 0.0223623 0.0145259 0.00294513 0.00258179 -0.00103759 2.05517e-07 -7.98706e-07 -1.3062e-07 0.0005 1.46608e-07 
275 1 0.0339534 0.0198967 0.00742694 0.000992859 -0.0105949 -0.00174898 -6.83716e-09 1.9444e-08 -1.39909e-09 0.0005 1.46608e-07 
277 1 0.0295641 0.0232242 0.0126419 0.000554031 0.00542715 -0.0171469 1.93938e-10 -1.99039e-08 6.08227e-09 0.0005 1.46608e-07 
284 1 0.00937694 0.00505359 0.0435188 -9.68799e-317 -9.69932e-317 9.23294e-13 0 0 0 0.0005 1.46608e-07 
288 1 0.0457039 0.018685 0.00600217 -6.98434e-15 -3.90002e-14 -2.68502e-13 2.16986e-20 -3.57342e-21 0 0.0005 1.46608e-07 
291 1 0.031185 0.017322 0.0154604 0.000862124 0.0173329 0.00691319 -4.69074e-09 1.84041e-08 -4.29502e-09 0.0005 1.46608e-07 
294 1 0.0239797 0.0191467 0.00594569 -2.27378e-14 -4.66171e-14 -1.52822e-13 2.2764e-21 -9.21148e-21 2.96462e-21 0.0005 1.46608e-07 
299 1 0.0254808 0.018723 0.00589902 -2.07916e-14 -3.30138e-15 3.38791e-13 -4.79103e-21 2.2582e-21 -6.35275e-22 0.0005 1.46608e-07 
300 1 0.0420049 0.0222984 0.014227 2.14656e-05 0.0150617 -0.0163431 -1.32859e-09 -5.9899e-09 -9.00437e-09 0.0005 1.46608e-07 
