ITEM: TIMESTEP
19400000
ITEM: NUMBER OF ATOMS
109
ITEM: BOX BOUNDS ff ff ff
-0.02 0.43
-0.02 0.06
-0.02 0.07
ITEM: ATOMS id type x y z vx vy vz fx fy fz radius mass 
1 1 0.0197341 0.0178894 0.00733734 0.000979844 -0.0146146 0.00460566 -8.06311e-09 -8.14887e-08 4.51436e-08 0.0005 1.46608e-07 
2 1 0.019095 0.0155448 0.0089635 0.000168858 -0.013587 0.0171663 -2.16942e-10 5.30474e-09 1.04063e-08 0.0005 1.46608e-07 
4 1 0.0208769 0.0223974 0.00879763 0.000322627 -0.0124532 -0.0142007 8.62393e-11 -1.95502e-08 -1.73679e-09 0.0005 1.46608e-07 
5 1 0.0552425 0.0189586 0.00589144 -9.84758e-15 -1.33751e-14 -1.90504e-13 5.62483e-21 -4.59251e-21 0 0.0005 1.46608e-07 
15 1 0.00938048 0.0183393 0.00587271 3.64334e-15 5.54557e-16 -3.69009e-14 3.70577e-22 3.72231e-21 0 0.0005 1.46608e-07 
16 1 0.0260148 0.0196703 0.00594114 1.76441e-14 2.8422e-15 -2.87664e-13 -3.70577e-22 1.20934e-20 0 0.0005 1.46608e-07 
17 1 0.0386495 0.0217612 0.0081187 0.000331881 -0.015827 -0.0120983 1.84004e-10 -9.21397e-09 3.25565e-09 0.0005 1.46608e-07 
18 1 0.0366849 0.0218066 0.0435188 -9.6879e-317 9.73506e-317 2.68131e-13 0 0 0 0.0005 1.46608e-07 
20 1 0.0437584 0.0179106 0.00738645 0.00134608 -0.0107302 0.00290262 2.99965e-09 5.82041e-08 -2.2576e-08 0.0005 1.46608e-07 
24 1 0.0363516 0.0148093 0.0120908 0.000168817 0.00148 0.021289 -3.24481e-08 -2.08231e-07 -1.32884e-06 0.0005 1.46608e-07 
25 1 0.0338436 0.0175423 0.00617057 -2.24092e-16 -1.88908e-15 -5.63012e-15 -1.27644e-19 -1.34996e-20 6.35275e-21 0.0005 1.46608e-07 
27 1 0.000591717 0.0149731 0.0435188 9.71467e-317 9.75789e-317 -8.23806e-13 0 0 0 0.0005 1.46608e-07 
28 1 0.0414299 0.017307 0.0154013 0.000129632 0.0198772 0.00952684 6.83422e-10 6.55494e-09 -8.32599e-09 0.0005 1.46608e-07 
32 1 0.020996 0.024032 0.0129502 -0.000750898 0.00306712 -0.00424645 -9.44694e-09 2.11073e-08 1.15052e-07 0.0005 1.46608e-07 
33 1 0.0271951 0.023081 0.00993411 0.000417978 -0.00825941 -0.0192715 -2.83828e-10 -3.87212e-08 -9.60346e-08 0.0005 1.46608e-07 
37 1 0.0404793 0.0212293 0.0150955 0.00156949 0.0136502 -0.00997297 -1.1413e-08 1.05221e-08 -8.72309e-09 0.0005 1.46608e-07 
41 1 0.021677 0.0233516 0.012241 0.00429062 -0.00287802 -0.0190602 -6.35462e-09 3.7064e-08 -1.3201e-07 0.0005 1.46608e-07 
44 1 0.0314619 0.0166303 0.0079238 0.00405132 -0.00956697 0.00849542 -3.82214e-06 -1.44552e-05 2.30127e-05 0.0005 1.46608e-07 
47 1 0.020046 0.0193035 0.00715958 0.00077037 -0.0171418 -0.00187108 9.42817e-10 -9.63997e-09 8.36428e-09 0.0005 1.46608e-07 
49 1 0.003617 0.0285782 0.0435188 -9.68849e-317 -9.75601e-317 2.88878e-12 0 0 0 0.0005 1.46608e-07 
52 1 0.0432745 0.016207 0.00829439 0.000720085 -0.0123576 0.0119059 -7.85532e-09 -8.66071e-09 1.82112e-08 0.0005 1.46608e-07 
57 1 0.0177449 0.0174882 0.00600758 2.62624e-15 1.02258e-14 2.12818e-14 1.32349e-22 6.35275e-22 -6.35275e-22 0.0005 1.46608e-07 
59 1 0.0420547 0.0152437 0.0135245 0.0015133 0.00759386 0.0137448 1.7945e-10 2.44742e-08 -1.38708e-09 0.0005 1.46608e-07 
62 1 0.0182935 0.0143962 0.012921 0.00490563 -0.0083015 -0.00281051 8.36252e-08 -1.53984e-07 -7.26043e-08 0.0005 1.46608e-07 
63 1 0.0189231 0.0150861 0.00987975 0.000593636 -0.00777089 0.0193175 -7.75932e-09 6.2334e-09 1.16841e-08 0.0005 1.46608e-07 
65 1 0.0411871 0.0183437 0.0156961 0.000758343 0.0198057 0.00267388 -5.68807e-09 1.39215e-08 -8.45222e-09 0.0005 1.46608e-07 
67 1 0.0416199 0.0164734 0.0149212 0.000144101 0.0145435 0.0128994 -6.14966e-09 -5.1478e-08 -3.57423e-08 0.0005 1.46608e-07 
68 1 0.0422444 0.0148984 0.0126618 0.000422759 0.00422659 0.0175274 -8.20794e-10 2.1987e-08 2.78694e-08 0.0005 1.46608e-07 
73 1 0.033606 0.0194093 0.00581187 -7.1765e-15 -4.06557e-14 1.57634e-13 -5.6513e-21 -1.99582e-20 -5.0822e-21 0.0005 1.46608e-07 
74 1 0.0325017 0.0212169 0.00775934 0.000928303 -0.0144907 -0.00730579 -1.90203e-07 -7.6524e-08 1.15766e-08 0.0005 1.46608e-07 
76 1 0.0262967 0.0202204 0.0073474 0.000225721 -0.0206717 -0.00639389 -3.82892e-10 -9.07499e-09 9.47928e-09 0.0005 1.46608e-07 
79 1 0.054387 0.0178804 0.00601135 -1.30053e-14 -1.76676e-14 -2.51655e-13 1.85288e-22 1.98523e-22 2.11758e-22 0.0005 1.46608e-07 
84 1 0.0335295 0.0233616 0.0116 0.000222323 0.000541658 -0.0212413 -1.01299e-09 -9.5391e-09 -7.76923e-09 0.0005 1.46608e-07 
87 1 0.0406795 0.0206273 0.0155183 0.0025785 0.011175 -0.00542386 -1.30445e-08 1.64904e-08 -2.5489e-08 0.0005 1.46608e-07 
88 1 0.039764 0.0232373 0.0124786 0.00107562 0.0034324 -0.0188382 -1.94021e-07 2.7099e-07 -8.51712e-07 0.0005 1.46608e-07 
89 1 0.0427287 0.0149243 0.0105029 0.000699835 -0.003376 0.0177634 -4.83803e-09 2.27271e-09 5.28696e-08 0.0005 1.46608e-07 
90 1 0.0322678 0.020126 0.00745149 -0.000263104 -0.0208313 -0.00413547 -2.05236e-08 -3.50332e-08 -6.70693e-10 0.0005 1.46608e-07 
92 1 0.0393305 0.0233156 0.0107439 0.000749041 -0.00242939 -0.014314 1.89088e-07 -1.53697e-08 1.86557e-07 0.0005 1.46608e-07 
97 1 0.0191172 0.0227262 0.0138625 1.00033e-06 0.0122815 -0.0190821 2.85678e-13 -1.45164e-08 -9.35929e-09 0.0005 1.46608e-07 
103 1 0.037324 0.0162283 0.00822373 0.000808473 -0.0132005 0.0123724 -5.52002e-09 -6.67775e-09 2.24484e-08 0.0005 1.46608e-07 
106 1 0.0212205 0.0231534 0.0101415 0.00160491 -0.00528327 -0.0135548 1.5343e-08 3.41741e-07 1.01467e-06 0.0005 1.46608e-07 
108 1 0.0214483 0.0168437 0.00645098 -2.39102e-14 5.0874e-14 1.84333e-13 -1.4929e-20 4.45751e-20 -1.3976e-20 0.0005 1.46608e-07 
109 1 0.0279827 0.0228797 0.0134549 -0.000186041 0.0118914 -0.019257 -5.86097e-10 -9.2905e-09 -8.08982e-09 0.0005 1.46608e-07 
112 1 0.0347798 0.0199637 0.0156855 0.00341249 -0.00526078 0.00420951 -1.01623e-06 1.86787e-07 4.00266e-07 0.0005 1.46608e-07 
121 1 0.0586827 0.0172628 0.00598816 1.0378e-14 -2.15397e-14 -2.64999e-13 -3.57342e-22 1.21761e-21 0 0.0005 1.46608e-07 
122 1 0.0444872 0.0209675 0.00765348 3.05038e-06 -0.0195366 -0.0102192 9.32408e-10 -9.58988e-09 8.94783e-09 0.0005 1.46608e-07 
124 1 0.0184853 0.0146071 0.0119625 0.00535441 0.000578688 -0.000851976 5.93162e-08 -1.61483e-07 7.36895e-08 0.0005 1.46608e-07 
125 1 0.0439599 0.0189469 0.00717829 0.00144158 -0.0157582 0.00148218 -7.55836e-09 -3.04917e-08 1.02457e-08 0.0005 1.46608e-07 
128 1 0.0303903 0.00406748 0.0435188 -9.67556e-317 -9.75879e-317 -3.22607e-12 0 0 0 0.0005 1.46608e-07 
130 1 0.0300476 0.0153176 0.0135892 -4.62671e-05 0.0094852 0.0205459 1.35004e-08 9.55637e-09 1.75775e-08 0.0005 1.46608e-07 
131 1 0.0437719 0.0158625 0.00863623 0.000897181 -0.00546504 0.00568763 -3.05799e-09 -7.68981e-09 2.68175e-09 0.0005 1.46608e-07 
133 1 0.0219771 0.0231708 0.0131846 0.00275666 0.0107448 -0.0579144 0 0 -1.43822e-06 0.0005 1.46608e-07 
135 1 0.0430085 0.015354 0.00939574 4.84368e-05 -0.00997509 0.017405 -2.43157e-09 4.09823e-09 1.2976e-08 0.0005 1.46608e-07 
137 1 0.0465254 0.0191962 0.00590655 2.3907e-15 1.33715e-14 9.20547e-14 -3.42784e-21 1.03232e-21 2.11758e-22 0.0005 1.46608e-07 
139 1 0.0326923 0.0218846 0.00823464 0.000648388 -0.0149963 -0.0130805 5.98267e-08 -3.24775e-07 -2.74186e-07 0.0005 1.46608e-07 
141 1 0.0304702 0.0147903 0.0115121 0.00485546 0.00105728 0.0067784 3.09838e-06 -8.42716e-06 6.72778e-06 0.0005 1.46608e-07 
142 1 0.0447801 0.0222121 0.00854896 0.00055845 -0.0108263 -0.012825 2.08021e-08 6.22515e-09 6.8114e-08 0.0005 1.46608e-07 
143 1 0.0376623 0.0173291 0.0075282 0.00017022 -0.018658 0.0084661 -1.79154e-10 -3.65477e-09 1.44184e-08 0.0005 1.46608e-07 
147 1 0.0341987 0.0222419 0.0143568 -0.000413597 0.0178008 -0.014237 5.33948e-09 -6.26462e-09 -9.71651e-09 0.0005 1.46608e-07 
149 1 0.0584376 0.0191695 0.00582359 8.11101e-15 -1.68461e-14 -2.07264e-13 -3.20483e-20 -6.33951e-21 -6.35275e-22 0.0005 1.46608e-07 
150 1 0.0203186 0.0143371 0.0124334 0.00473569 0.000719887 0.000921799 -1.29728e-07 -1.43077e-07 3.84617e-07 0.0005 1.46608e-07 
157 1 0.0177813 0.0233242 0.0127583 0.00406883 -0.000219546 -0.00385565 -1.2599e-07 3.68601e-07 -1.35163e-06 0.0005 1.46608e-07 
158 1 0.020084 0.0201843 0.0061153 5.51563e-15 -2.47841e-15 5.04899e-14 1.42937e-21 5.73071e-21 -2.11758e-22 0.0005 1.46608e-07 
160 1 0.0418266 0.0157672 0.01428 0.000553527 0.0128271 0.0153865 -6.43733e-10 1.09216e-08 -2.52614e-09 0.0005 1.46608e-07 
161 1 0.0221348 0.00230077 0.0435188 9.74157e-317 -9.69799e-317 9.23294e-13 0 0 0 0.0005 1.46608e-07 
165 1 0.201805 0.0186174 0.00570934 -3.8561e-20 4.0743e-22 8.61844e-22 0 0 0 0.0005 1.46608e-07 
166 1 0.0356904 0.0161434 0.0146799 0.00281747 0.00525655 0.00643768 -2.13948e-08 -1.32107e-06 2.14033e-07 0.0005 1.46608e-07 
167 1 0.0228946 0.0229622 0.0136296 -0.00694462 0.00532598 -0.0111228 -1.03086e-07 9.2391e-08 -1.5867e-07 0.0005 1.46608e-07 
173 1 0.0801305 0.0198856 0.00588445 -9.52802e-15 -2.67156e-14 1.14756e-13 1.32349e-23 0 0 0.0005 1.46608e-07 
174 1 0.0228046 0.0145647 0.0144983 -0.0290059 0.0222695 -0.0702253 0 0 -1.43822e-06 0.0005 1.46608e-07 
179 1 0.067984 0.0193424 0.00575613 3.93944e-15 7.50854e-15 2.61625e-13 2.49279e-20 -9.56221e-21 0 0.0005 1.46608e-07 
185 1 0.0391538 0.0229969 0.00978031 0.000240926 -0.00844439 -0.0188807 3.9906e-11 -1.14565e-08 -1.44462e-09 0.0005 1.46608e-07 
186 1 0.0369167 0.0151226 0.00979674 0.000191907 -0.00617928 0.0142362 -1.19452e-08 8.42858e-08 -1.27574e-07 0.0005 1.46608e-07 
187 1 0.035334 0.0176481 0.0154437 7.30578e-05 0.0201926 0.0071035 -1.85617e-10 8.51058e-09 -8.45252e-09 0.0005 1.46608e-07 
191 1 0.0244092 0.0147516 0.0118785 0.000657563 7.85925e-05 0.0167314 5.68723e-09 1.7879e-08 -2.62251e-08 0.0005 1.46608e-07 
193 1 0.0245476 0.0198163 0.00585259 2.6086e-15 4.20844e-16 -4.25291e-14 -1.19114e-22 1.20768e-22 0 0.0005 1.46608e-07 
194 1 0.0344996 0.0212572 0.015046 0.000141976 0.0190585 -0.0114366 6.84348e-08 1.82897e-09 1.30689e-08 0.0005 1.46608e-07 
197 1 0.0379394 0.018736 0.00726936 0.000134404 -0.0228643 -0.00038095 -1.01451e-08 -3.6973e-09 9.08747e-09 0.0005 1.46608e-07 
200 1 0.024552 0.0163849 0.0150651 0.0051247 0.00668632 0.00613214 -2.62828e-07 -9.29889e-08 -4.64979e-08 0.0005 1.46608e-07 
205 1 0.036805 0.0202346 0.00608327 3.0017e-15 -9.79764e-15 4.51374e-14 1.06025e-19 8.25328e-20 1.10114e-20 0.0005 1.46608e-07 
215 1 0.026935 0.0188837 0.00598981 1.43031e-14 2.30385e-15 -2.33189e-13 2.51463e-22 2.40875e-21 2.11758e-22 0.0005 1.46608e-07 
225 1 0.0276392 0.0233498 0.0120666 0.000962501 0.00240489 -0.0194916 -7.27067e-09 -7.84025e-09 -1.68893e-08 0.0005 1.46608e-07 
226 1 0.0424755 0.0147674 0.0115158 0.000194711 -4.26132e-05 0.0211719 -1.31042e-09 1.07925e-08 5.67894e-09 0.0005 1.46608e-07 
227 1 0.0307228 0.0148595 0.0106381 0.000795719 -0.00297194 0.0135549 -5.49206e-06 -1.72947e-06 1.30638e-06 0.0005 1.46608e-07 
229 1 0.0409648 0.0192768 0.0157029 0.000295015 0.0210278 -0.000561094 -4.89622e-09 6.53997e-09 -9.63425e-09 0.0005 1.46608e-07 
232 1 0.0221996 0.00109062 0.0435188 9.58743e-317 9.68145e-317 4.97437e-14 0 0 0 0.0005 1.46608e-07 
237 1 0.0408159 0.0200502 0.0156164 0.000840459 0.0184487 -0.00283556 -1.2143e-08 4.82217e-09 -7.13891e-09 0.0005 1.46608e-07 
241 1 0.0310055 0.0152948 0.00938193 0.00108374 -0.00828237 0.0162092 -1.13176e-08 -6.96995e-09 3.20236e-08 0.0005 1.46608e-07 
242 1 0.0297591 0.0159584 0.0144957 0.000875853 0.0140127 0.0139112 -7.72302e-09 1.64637e-08 6.0018e-09 0.0005 1.46608e-07 
247 1 0.0435189 0.0169178 0.00781108 8.55459e-05 -0.0194027 0.00972615 7.13119e-11 4.07363e-09 9.76138e-09 0.0005 1.46608e-07 
252 1 0.0557897 0.0172859 0.0059806 9.80644e-15 1.33553e-14 1.89989e-13 2.5636e-20 -3.20152e-20 8.47033e-22 0.0005 1.46608e-07 
253 1 0.0895649 0.0187731 0.00575225 -1.30395e-14 1.90516e-14 2.53772e-13 -2.68404e-19 -2.23153e-19 2.5411e-21 0.0005 1.46608e-07 
256 1 0.0287851 0.0200061 0.0157066 0.000162816 0.0195876 -0.00509958 -7.21688e-10 6.39696e-09 -1.20954e-08 0.0005 1.46608e-07 
257 1 0.0284336 0.0215385 0.0150315 0.00626444 -0.00221546 0.00283444 3.44209e-08 -1.69397e-07 5.46303e-08 0.0005 1.46608e-07 
258 1 0.0388515 0.0224207 0.00875833 0.000550793 -0.0105648 -0.0143799 -2.44523e-11 -2.67954e-08 1.37385e-08 0.0005 1.46608e-07 
260 1 0.108836 0.0200055 0.00584234 7.58843e-16 -1.27685e-15 -6.97435e-15 3.13402e-20 5.29396e-23 3.59989e-21 0.0005 1.46608e-07 
268 1 0.0173509 0.0234923 0.0118715 0.00142255 -0.000942461 -0.00327075 2.42484e-07 1.3939e-07 -8.41708e-07 0.0005 1.46608e-07 
269 1 0.0316944 0.0175222 0.00748068 0.000511632 -0.0143136 0.00467729 -2.73354e-09 4.68786e-08 1.02578e-08 0.0005 1.46608e-07 
270 1 0.0293329 0.0177828 0.0156066 0.000720129 0.0191375 0.00625178 2.23667e-08 3.09442e-07 -1.94901e-07 0.0005 1.46608e-07 
271 1 0.0332364 0.0232055 0.0101855 0.000379072 -0.00617899 -0.0176432 -2.58282e-09 -2.18946e-08 -1.25067e-08 0.0005 1.46608e-07 
274 1 0.0194851 0.0146188 0.0119585 0.0055012 0.00129441 -0.000343383 -4.51792e-08 -2.29568e-08 7.96706e-08 0.0005 1.46608e-07 
275 1 0.0295215 0.0168081 0.0151744 0.00038876 0.0178448 0.0111692 -1.71567e-09 1.59307e-08 -2.54228e-09 0.0005 1.46608e-07 
277 1 0.0236128 0.016706 0.015275 0.00510247 8.24452e-06 -0.000564606 -8.55892e-09 -5.55496e-08 -1.09527e-08 0.0005 1.46608e-07 
284 1 0.00937694 0.00505359 0.0435188 -9.68799e-317 -9.69932e-317 9.23294e-13 0 0 0 0.0005 1.46608e-07 
288 1 0.0234758 0.0225067 0.0143144 -0.008267 0.00617328 -0.00894494 -1.3971e-07 1.27275e-07 -1.34019e-07 0.0005 1.46608e-07 
291 1 0.0268252 0.022264 0.00862961 0.000709108 -0.0133258 -0.0137794 -3.73363e-09 -1.77962e-08 -2.69326e-09 0.0005 1.46608e-07 
294 1 0.0238574 0.0158467 0.0145815 0.00293416 0.00667763 0.00751331 7.2642e-08 -1.33998e-07 -1.28208e-07 0.0005 1.46608e-07 
299 1 0.0254808 0.018723 0.00589902 -2.07699e-14 -3.32616e-15 3.38792e-13 -2.65624e-20 -8.30489e-22 -1.69407e-21 0.0005 1.46608e-07 
300 1 0.0360403 0.0153101 0.0135655 0.000215373 0.0101712 0.0189104 -1.23312e-09 1.23422e-08 4.11238e-10 0.0005 1.46608e-07 
