ITEM: TIMESTEP
17000000
ITEM: NUMBER OF ATOMS
121
ITEM: BOX BOUNDS ff ff ff
-0.02 0.43
-0.02 0.06
-0.02 0.07
ITEM: ATOMS id type x y z vx vy vz fx fy fz radius mass 
1 1 0.0202627 0.0241162 0.0129434 1.42845e-05 2.20412e-05 0.000228395 -2.90382e-07 -2.6392e-08 -4.37665e-08 0.0005 1.46608e-07 
2 1 0.0173107 0.0240724 0.0132309 -0.00189005 -0.00175853 -0.00132206 -2.69466e-07 1.03064e-06 -1.49219e-06 0.0005 1.46608e-07 
4 1 0.0167095 0.0233641 0.0125753 -0.000254714 -0.000424171 -0.000456384 2.26875e-07 1.58531e-07 9.5843e-08 0.0005 1.46608e-07 
5 1 0.0549512 0.0187958 0.00591793 -5.62749e-15 -7.65267e-15 -1.0897e-13 2.88521e-21 -4.23516e-22 0 0.0005 1.46608e-07 
11 1 0.0238555 0.0178436 0.0157754 1.39547e-11 0.0197424 0.00554102 2.60023e-16 3.66287e-09 -1.31431e-08 0.0005 1.46608e-07 
15 1 0.00938048 0.0183393 0.00587271 3.6458e-15 5.41342e-16 -3.69009e-14 2.56757e-21 -2.13214e-20 -2.11758e-22 0.0005 1.46608e-07 
16 1 0.0260148 0.0196703 0.00594114 1.7644e-14 2.84399e-15 -2.87664e-13 -5.29396e-23 -1.74039e-21 0 0.0005 1.46608e-07 
17 1 0.0353333 0.0180274 0.0155628 8.56301e-05 0.0211607 0.00593763 3.85728e-10 6.97352e-09 -1.04702e-08 0.0005 1.46608e-07 
18 1 0.0366849 0.0218066 0.0435188 -9.6879e-317 9.73506e-317 2.68131e-13 0 0 0 0.0005 1.46608e-07 
20 1 0.0417103 0.0164461 0.0149096 0.000580442 0.0135668 0.0121158 8.30705e-09 -8.72004e-08 -6.46626e-08 0.0005 1.46608e-07 
24 1 0.033416 0.0233183 0.0106942 0.00175903 -0.00293431 -0.0132181 -1.00263e-07 7.97806e-08 -4.60321e-08 0.0005 1.46608e-07 
25 1 0.022194 0.0232148 0.0129371 4.6755e-05 0.00259341 -0.00281388 4.67308e-09 1.22239e-09 1.2547e-07 0.0005 1.46608e-07 
27 1 0.000591717 0.0149731 0.0435188 9.71467e-317 9.75789e-317 -8.23806e-13 0 0 0 0.0005 1.46608e-07 
28 1 0.0389284 0.0223393 0.00866879 0.00086337 -0.0107223 -0.013885 4.46795e-09 -2.26715e-09 1.5913e-08 0.0005 1.46608e-07 
32 1 0.0192956 0.014943 0.0103345 -0.00124344 -0.00635816 0.0176123 1.98336e-09 2.39313e-08 7.77555e-08 0.0005 1.46608e-07 
33 1 0.0236923 0.0167464 0.0153081 0.00331898 0.00848799 0.00582201 -8.6288e-07 -1.468e-06 -1.25275e-07 0.0005 1.46608e-07 
35 1 0.0212702 0.0240012 0.0133538 -9.64086e-05 0.000497247 -0.000273852 -1.55907e-09 8.58511e-09 -5.49626e-09 0.0005 1.46608e-07 
37 1 0.0369609 0.015087 0.00992378 0.00121799 -0.005837 0.00991636 7.08551e-09 8.62778e-09 -4.81643e-08 0.0005 1.46608e-07 
41 1 0.0184907 0.0146795 0.0123503 0.00364803 0.00220955 0.00701983 6.72363e-08 -5.05639e-08 -8.21652e-07 0.0005 1.46608e-07 
44 1 0.0293967 0.0178447 0.0156167 0.000339239 0.012559 0.00388837 2.13752e-10 9.00921e-09 -2.20537e-09 0.0005 1.46608e-07 
47 1 0.0211479 0.0228153 0.00942189 0.000643369 -0.00837707 -0.0124637 5.09337e-06 3.48337e-06 9.04338e-06 0.0005 1.46608e-07 
49 1 0.003617 0.0285782 0.0435188 -9.68849e-317 -9.75601e-317 2.88878e-12 0 0 0 0.0005 1.46608e-07 
52 1 0.0410066 0.0194242 0.015731 0.00038128 0.0206191 -0.00103615 -1.42158e-09 -1.68349e-09 -8.96311e-09 0.0005 1.46608e-07 
57 1 0.0177449 0.0174882 0.00600758 2.6313e-15 1.02203e-14 2.12838e-14 9.26442e-22 -1.33408e-20 6.14099e-21 0.0005 1.46608e-07 
59 1 0.0397803 0.0232992 0.0121382 0.000243662 0.00287794 -0.020479 -4.66547e-10 -6.76686e-09 -1.29043e-08 0.0005 1.46608e-07 
62 1 0.0190255 0.0152298 0.009548 0.00188084 -0.00704086 0.0155381 -3.98866e-08 -5.75811e-08 1.015e-07 0.0005 1.46608e-07 
63 1 0.0197017 0.0172175 0.00757366 0.000373407 -0.0163342 0.00793009 -2.56099e-10 1.16999e-08 5.54192e-09 0.0005 1.46608e-07 
65 1 0.0387034 0.0216506 0.00805093 0.000326955 -0.016241 -0.0118673 -1.08437e-10 -1.20238e-08 3.69874e-09 0.0005 1.46608e-07 
67 1 0.0391889 0.0228539 0.00955834 0.00047655 -0.00974012 -0.0192924 -7.49855e-09 -1.17598e-08 -5.58534e-09 0.0005 1.46608e-07 
68 1 0.0399784 0.0230982 0.0130217 0.000844359 0.00574254 -0.0171903 -8.85594e-09 -4.97893e-09 -2.69234e-08 0.0005 1.46608e-07 
71 1 0.0205645 0.0211917 0.00777291 0.000950222 -0.0164073 -0.00922148 -5.57808e-09 -2.24059e-08 4.63207e-09 0.0005 1.46608e-07 
73 1 0.0243738 0.0186877 0.0159267 1.31353e-10 0.0204338 0.00165612 1.82577e-16 1.0851e-09 -1.35973e-08 0.0005 1.46608e-07 
74 1 0.030525 0.0148135 0.0117205 0.00232152 0.00187556 0.014549 -4.8083e-08 -2.75595e-06 -5.05956e-06 0.0005 1.46608e-07 
76 1 0.0233695 0.0225714 0.0142115 -0.0137392 0.0140651 -0.0182206 4.88878e-07 5.59658e-07 -7.26878e-07 0.0005 1.46608e-07 
79 1 0.0365394 0.0147887 0.0116529 0.000110798 9.28141e-05 0.022114 -5.13372e-11 1.26064e-08 5.36598e-09 0.0005 1.46608e-07 
84 1 0.0316287 0.0168087 0.00780198 0.0012147 -0.0113906 0.00612475 -6.2114e-08 -1.53319e-08 2.91e-07 0.0005 1.46608e-07 
87 1 0.0372226 0.0156804 0.00883971 0.000165252 -0.0130131 0.0165897 -8.15804e-10 4.72585e-09 1.12414e-08 0.0005 1.46608e-07 
88 1 0.0370975 0.0148635 0.0104501 0.000295829 -0.0015685 0.0199475 -1.63501e-08 2.78392e-09 -2.91241e-08 0.0005 1.46608e-07 
89 1 0.0407286 0.0208313 0.0154557 0.00112921 0.0146231 -0.00596237 -4.20104e-09 -1.08931e-08 -3.68693e-08 0.0005 1.46608e-07 
90 1 0.0298577 0.0159401 0.0144938 0.000876144 0.0140025 0.0139748 -7.84685e-09 1.71452e-08 5.7467e-09 0.0005 1.46608e-07 
92 1 0.0362728 0.0150055 0.0129022 0.000581408 0.0070976 0.0180846 -4.62727e-09 1.55718e-08 1.22518e-08 0.0005 1.46608e-07 
97 1 0.0193904 0.0226038 0.00905981 9.21604e-05 -0.0119185 -0.0182384 -9.5407e-10 -1.22607e-08 3.2559e-09 0.0005 1.46608e-07 
103 1 0.0344449 0.0218941 0.0146047 -4.75596e-05 0.0172437 -0.0139646 -1.08051e-08 4.17403e-09 -1.34612e-08 0.0005 1.46608e-07 
106 1 0.0177445 0.023318 0.0127379 6.31133e-06 0.000365831 -0.000483997 1.85617e-09 -3.09961e-08 1.31997e-06 0.0005 1.46608e-07 
108 1 0.0214483 0.0168437 0.00645098 -2.38736e-14 5.0842e-14 1.84347e-13 -2.76344e-20 1.99053e-20 -1.03762e-20 0.0005 1.46608e-07 
109 1 0.0257055 0.0172473 0.00758226 0.000524149 -0.0143211 0.00449269 7.01263e-09 4.55226e-08 -1.47523e-08 0.0005 1.46608e-07 
110 1 0.0199675 0.0237487 0.0138704 0.000106457 0.0055157 -0.00751871 -1.56065e-08 4.33771e-07 -1.06136e-06 0.0005 1.46608e-07 
112 1 0.0325221 0.0209877 0.00764767 0.000857374 -0.0121211 -0.00541521 3.21484e-07 1.342e-06 1.26636e-06 0.0005 1.46608e-07 
116 1 0.0192536 0.015764 0.00871772 0.000207795 -0.0140697 0.0159702 -2.7022e-10 4.70978e-09 1.10819e-08 0.0005 1.46608e-07 
121 1 0.0562958 0.0173601 0.00594923 -1.5815e-14 -2.14827e-14 -3.06011e-13 2.5411e-21 -1.50878e-21 0 0.0005 1.46608e-07 
122 1 0.0422223 0.0151599 0.0133015 0.000284357 0.00898678 0.0193879 -3.14811e-09 1.3329e-08 3.18922e-09 0.0005 1.46608e-07 
124 1 0.0204716 0.0203492 0.00743221 9.66427e-05 -0.0199674 -0.00691997 -7.72841e-10 -9.05245e-09 5.87597e-09 0.0005 1.46608e-07 
125 1 0.0419474 0.0157174 0.0142371 0.000471933 0.0130705 0.0161127 -2.90262e-09 1.33054e-08 2.55107e-10 0.0005 1.46608e-07 
126 1 0.0227177 0.023317 0.0138895 0.0130956 -0.00884663 -0.0049431 0 0 -1.43822e-06 0.0005 1.46608e-07 
128 1 0.0303903 0.00406748 0.0435188 -9.67556e-317 -9.75879e-317 -3.22607e-12 0 0 0 0.0005 1.46608e-07 
130 1 0.0279696 0.0230584 0.0130958 0.00101994 0.00648357 -0.0120948 7.90861e-09 -1.31258e-08 6.90343e-09 0.0005 1.46608e-07 
131 1 0.040141 0.0232888 0.0105967 0.00166106 -0.00447384 -0.0167597 -1.67531e-08 -3.02148e-08 -6.03864e-08 0.0005 1.46608e-07 
133 1 0.022574 0.0219362 0.0148793 0.000510457 0.0313989 -0.02659 -4.03491e-09 1.9346e-07 -2.2116e-07 0.0005 1.46608e-07 
135 1 0.0408867 0.0201806 0.0155907 0.00190239 0.0180144 -0.00279096 -1.2521e-08 -8.28839e-09 5.19004e-09 0.0005 1.46608e-07 
137 1 0.0455246 0.0200511 0.00578721 5.15818e-15 -4.38385e-14 1.39095e-13 -4.26825e-20 2.06994e-20 8.04681e-21 0.0005 1.46608e-07 
139 1 0.0307459 0.0148018 0.0109158 0.00105424 -0.00301619 0.0184441 -2.11156e-06 1.49682e-07 1.97907e-06 0.0005 1.46608e-07 
141 1 0.0283091 0.0221962 0.0143643 0.000249783 0.0142048 -0.0155928 -1.59223e-09 -4.37553e-09 -1.11128e-08 0.0005 1.46608e-07 
142 1 0.0426586 0.0147855 0.0112308 0.000546921 -0.00101712 0.0204805 -5.08924e-09 8.70318e-09 1.16828e-08 0.0005 1.46608e-07 
143 1 0.0346077 0.0211907 0.0151089 0.00014221 0.0188846 -0.0107081 -1.61736e-09 3.59683e-10 -1.27001e-08 0.0005 1.46608e-07 
147 1 0.0319068 0.0182851 0.00723527 0.000605433 -0.0126024 0.00191441 1.19878e-07 4.9244e-07 -1.54789e-07 0.0005 1.46608e-07 
149 1 0.058299 0.01847 0.00587501 6.12068e-15 -1.27049e-14 -1.56321e-13 4.61898e-21 -1.60142e-21 4.23516e-22 0.0005 1.46608e-07 
150 1 0.0203433 0.0142952 0.0135221 0.00132089 0.00187028 -0.00232372 -3.23369e-07 -6.60893e-08 -8.29826e-07 0.0005 1.46608e-07 
157 1 0.0191284 0.0140813 0.0128354 0.00614799 -0.000504819 0.000651915 -1.28771e-07 2.14291e-07 -4.06496e-07 0.0005 1.46608e-07 
158 1 0.020084 0.0201843 0.0061153 5.51524e-15 -2.47868e-15 5.04899e-14 -5.18808e-21 -1.16599e-20 -2.11758e-22 0.0005 1.46608e-07 
160 1 0.0393174 0.0232314 0.0104796 0.00128805 -0.00541744 -0.0161385 -2.1095e-08 -3.16691e-08 -7.4624e-08 0.0005 1.46608e-07 
161 1 0.0221348 0.00230077 0.0435188 9.74157e-317 -9.69799e-317 9.23294e-13 0 0 0 0.0005 1.46608e-07 
165 1 0.201545 0.0186191 0.00570971 0.0251011 -0.00419646 -0.000982804 -4.9297e-07 -1.46537e-07 -3.45295e-08 0.0005 1.46608e-07 
166 1 0.032914 0.0222856 0.00860582 0.00110844 -0.0124432 -0.0132839 2.01053e-08 1.91548e-08 -2.14977e-07 0.0005 1.46608e-07 
167 1 0.0173644 0.0234816 0.0118288 2.33513e-05 9.33986e-05 -0.000157439 7.4145e-08 -1.09324e-07 4.90123e-08 0.0005 1.46608e-07 
170 1 0.0235885 0.0212236 0.015384 0.00214742 0.00416226 0.00606805 -8.67802e-07 5.54749e-07 4.08924e-07 0.0005 1.46608e-07 
171 1 0.0199007 0.0164746 0.00802215 0.000158243 -0.00871201 0.00495919 9.37335e-10 5.97605e-09 -4.89825e-09 0.0005 1.46608e-07 
173 1 0.0466369 0.0201459 0.00581736 1.06503e-14 -2.29148e-14 -2.37919e-13 1.52863e-20 8.41739e-21 0 0.0005 1.46608e-07 
174 1 0.0183488 0.0149678 0.0132972 0.0109472 0.00590423 0.00717449 9.37783e-08 -9.30306e-08 -9.36476e-07 0.0005 1.46608e-07 
179 1 0.067984 0.0193424 0.00575613 3.8971e-15 7.5498e-15 2.61625e-13 -6.42322e-20 8.10505e-20 -1.48231e-21 0.0005 1.46608e-07 
185 1 0.0360277 0.0155774 0.0139858 0.000204012 0.0115161 0.0179336 2.77099e-09 -5.07869e-09 -3.01559e-08 0.0005 1.46608e-07 
186 1 0.0341614 0.0227242 0.0137864 0.000458514 0.0109551 -0.0165144 -1.43228e-08 -1.36313e-08 4.34293e-08 0.0005 1.46608e-07 
187 1 0.032713 0.0216485 0.00802762 0.00183756 -0.0091263 -0.00830539 -4.51026e-07 1.21225e-07 2.55209e-07 0.0005 1.46608e-07 
191 1 0.0215958 0.0234091 0.0114761 0.00054668 0.00020917 -0.0133558 1.61858e-07 8.13862e-08 7.80837e-07 0.0005 1.46608e-07 
193 1 0.0245476 0.0198163 0.00585259 2.60849e-15 4.19729e-16 -4.25291e-14 7.94093e-23 -4.54949e-22 0 0.0005 1.46608e-07 
194 1 0.0323556 0.0200728 0.00744417 0.00071283 -0.0187786 -0.00345622 -2.23078e-07 1.31199e-07 1.91964e-07 0.0005 1.46608e-07 
197 1 0.0348587 0.0200371 0.0156617 0.000908409 0.0174265 -0.0054612 1.63945e-08 -9.03439e-09 -1.26856e-08 0.0005 1.46608e-07 
200 1 0.0239338 0.0158901 0.0146414 0.00415983 0.00398002 0.00204714 -6.35417e-10 -7.05392e-09 7.82824e-09 0.0005 1.46608e-07 
205 1 0.0350181 0.0192358 0.0157958 0.000904076 0.0177783 0.00161921 -2.78915e-09 -1.56178e-07 6.25104e-09 0.0005 1.46608e-07 
206 1 0.0195982 0.0149113 0.0131361 0.00511035 0.000622217 -0.0014425 4.59865e-07 -9.55131e-08 -2.83204e-07 0.0005 1.46608e-07 
215 1 0.026935 0.0188837 0.00598981 1.43037e-14 2.30871e-15 -2.33189e-13 -4.5131e-21 1.4388e-20 -2.11758e-22 0.0005 1.46608e-07 
225 1 0.0243549 0.0148891 0.0125209 0.000464712 0.00506909 0.0201596 -5.73082e-09 9.94702e-09 6.11132e-09 0.0005 1.46608e-07 
226 1 0.0405069 0.0215235 0.0149288 0.000624161 0.0154316 -0.0119367 -2.83e-09 5.393e-09 -1.49878e-08 0.0005 1.46608e-07 
227 1 0.028596 0.0213723 0.0151272 0.000961123 0.0151293 -0.00938444 5.53995e-09 -3.27977e-08 2.95887e-08 0.0005 1.46608e-07 
229 1 0.0378881 0.0181865 0.00725565 0.000400049 -0.0148522 0.00155077 2.2931e-09 1.94046e-08 5.68516e-09 0.0005 1.46608e-07 
232 1 0.0221996 0.00109062 0.0435188 9.58743e-317 9.68145e-317 4.97437e-14 0 0 0 0.0005 1.46608e-07 
235 1 0.0241053 0.0219249 0.0148967 2.7688e-05 0.000334608 -0.000199587 -1.20717e-06 7.90107e-07 -8.11475e-07 0.0005 1.46608e-07 
237 1 0.0375679 0.0166595 0.00787585 0.00105025 -0.0131985 0.00880822 4.36623e-09 1.97368e-08 2.43065e-08 0.0005 1.46608e-07 
241 1 0.0290966 0.019039 0.0158388 0.0011533 0.00867565 -0.000127972 -9.02703e-07 5.01575e-07 4.31276e-07 0.0005 1.46608e-07 
242 1 0.0277546 0.023331 0.0121073 0.000824388 0.00371788 -0.0199569 1.27045e-08 -1.98527e-08 1.60896e-08 0.0005 1.46608e-07 
247 1 0.041522 0.0172469 0.0153854 9.28721e-05 0.0191576 0.00933212 2.75921e-09 -3.55314e-09 -1.63224e-08 0.0005 1.46608e-07 
252 1 0.0232705 0.0186438 0.0159239 0.000486199 0.0207376 0.00191219 -1.97947e-10 2.06796e-09 -1.40027e-08 0.0005 1.46608e-07 
253 1 0.0895649 0.0187731 0.00575225 -1.31314e-14 1.89714e-14 2.53773e-13 2.77668e-20 -7.10184e-20 6.35275e-21 0.0005 1.46608e-07 
256 1 0.0268183 0.0219294 0.00833146 0.000353041 -0.0154771 -0.0137149 -1.79716e-09 -1.175e-08 3.57913e-09 0.0005 1.46608e-07 
257 1 0.0264007 0.0202777 0.00741963 0.000783908 -0.0116035 -0.00412267 1.91956e-08 2.24249e-08 -1.12882e-08 0.0005 1.46608e-07 
258 1 0.035773 0.0161909 0.0147071 0.00281159 0.00682262 0.00711128 -3.4175e-08 3.73086e-08 6.5585e-08 0.0005 1.46608e-07 
260 1 0.108836 0.0200055 0.00584234 7.66972e-16 -1.26234e-15 -6.97607e-15 2.11758e-22 0 0 0.0005 1.46608e-07 
268 1 0.0173354 0.0141169 0.0134235 0.000481423 -0.000655247 0.00146322 7.06092e-09 -1.06968e-08 2.43939e-08 0.0005 1.46608e-07 
269 1 0.0295984 0.0168418 0.0151892 0.000456062 0.0177653 0.0111441 -3.18103e-09 1.26436e-08 -4.77911e-09 0.0005 1.46608e-07 
270 1 0.0271473 0.0228477 0.009343 0.00107576 -0.00779792 -0.0139116 4.31347e-09 -8.23324e-09 1.28109e-08 0.0005 1.46608e-07 
271 1 0.0312926 0.0158935 0.00860175 0.0012588 -0.0151051 0.0140657 5.19655e-09 1.57567e-08 2.62455e-08 0.0005 1.46608e-07 
272 1 0.0221689 0.0144518 0.0140692 0.000490106 -0.000746226 0.00170065 -3.42133e-07 -9.30638e-08 -1.80521e-07 0.0005 1.46608e-07 
274 1 0.0183587 0.0240754 0.0129538 -7.71527e-05 0.000171216 -0.000191743 5.34396e-08 9.38044e-09 2.44539e-07 0.0005 1.46608e-07 
275 1 0.0274587 0.0233615 0.0108914 0.00127802 -0.00210017 -0.0178124 -5.08987e-09 -1.14522e-08 -6.56868e-09 0.0005 1.46608e-07 
277 1 0.0193096 0.0242202 0.0132272 -3.08799e-05 0.000498757 -0.000410353 -2.13719e-07 4.29695e-08 1.32026e-07 0.0005 1.46608e-07 
282 1 0.0228195 0.0206511 0.0156615 0.00398663 0.00352718 0.00724432 -1.34087e-07 -4.07431e-07 5.35409e-07 0.0005 1.46608e-07 
284 1 0.00937694 0.00505359 0.0435188 -9.68799e-317 -9.69932e-317 9.23294e-13 0 0 0 0.0005 1.46608e-07 
288 1 0.0213395 0.0142183 0.0135618 0.00119823 0.000767476 -9.27608e-05 -3.64643e-07 -1.06769e-07 -3.60732e-07 0.0005 1.46608e-07 
291 1 0.0200752 0.0142473 0.0125599 0.00481641 0.00205974 -0.00340542 -3.7834e-07 -7.15836e-09 -2.52286e-07 0.0005 1.46608e-07 
294 1 0.0193968 0.0146263 0.0119306 0.000266479 -0.00034659 0.000527413 -8.54872e-08 1.28979e-07 -3.60164e-07 0.0005 1.46608e-07 
299 1 0.0254808 0.018723 0.00589902 -2.07792e-14 -3.41818e-15 3.38791e-13 8.86738e-22 -2.16172e-19 -2.11758e-21 0.0005 1.46608e-07 
300 1 0.0332033 0.022933 0.00961813 0.000162348 -0.00924019 -0.019141 -6.89715e-10 -1.32031e-08 -3.09552e-09 0.0005 1.46608e-07 
