ITEM: TIMESTEP
2400000
ITEM: NUMBER OF ATOMS
287
ITEM: BOX BOUNDS ff ff ff
-0.02 0.43
-0.02 0.06
-0.02 0.07
ITEM: ATOMS id type x y z vx vy vz fx fy fz radius mass 
1 1 0.0219178 0.0234846 0.0145707 -0.00106672 0.0160096 -0.00679703 -2.16437e-05 -0.000210407 0.000126813 0.0005 1.46608e-07 
2 1 0.0161795 0.021112 0.016458 0.00420379 0.00203149 0.000603196 0 0 -1.43822e-06 0.0005 1.46608e-07 
3 1 0.0258906 0.0189162 0.0167548 0.00201686 -0.0581809 0.00535389 7.49067e-07 -8.1308e-05 6.67619e-06 0.0005 1.46608e-07 
4 1 0.019029 0.0239923 0.0145772 -5.46769e-05 0.00169365 -0.00451751 3.48731e-05 -1.32007e-05 1.98914e-07 0.0005 1.46608e-07 
5 1 0.0246534 0.019124 0.0164912 -0.0253391 -0.0413122 0.0869228 -0.00020998 0.000422409 -0.000213948 0.0005 1.46608e-07 
6 1 0.0208104 0.0230784 0.00990379 0.00047406 -0.00745384 -0.0175522 -1.06532e-09 -9.33847e-09 1.75947e-08 0.0005 1.46608e-07 
7 1 0.0209959 0.0233006 0.0107126 0.00085077 -0.00324324 -0.0196212 6.35271e-09 -9.26724e-09 1.128e-08 0.0005 1.46608e-07 
9 1 0.0208723 0.0215108 0.00801142 4.67249e-05 -0.0170898 -0.0127642 2.03039e-09 -9.65877e-09 5.49377e-09 0.0005 1.46608e-07 
10 1 0.0222013 0.0212309 0.0154072 0.0440332 -0.0784373 -0.000658036 -0.000201236 0.00031929 -0.000181373 0.0005 1.46608e-07 
11 1 0.018097 0.0146268 0.0120839 0.00718715 -0.00152019 -0.0131512 4.08845e-08 2.6509e-09 -1.40136e-06 0.0005 1.46608e-07 
12 1 0.0192626 0.0169082 0.0161915 -0.01616 -2.52842e-05 -0.0153973 0 0 -1.43822e-06 0.0005 1.46608e-07 
13 1 0.0175525 0.0240249 0.0129819 -0.000603346 -0.000177098 9.88188e-05 6.89497e-06 -7.75168e-07 -9.74287e-07 0.0005 1.46608e-07 
14 1 0.0193341 0.0228185 0.0172787 -0.00150553 -0.00344034 0.0114148 0 0 -1.43822e-06 0.0005 1.46608e-07 
15 1 0.00938048 0.0183393 0.00587271 3.64659e-15 5.34343e-16 -3.69009e-14 8.73503e-22 -1.30033e-20 0 0.0005 1.46608e-07 
16 1 0.0248216 0.0174257 0.0171157 0.00527055 -0.000512069 -0.0133237 1.12548e-05 7.62411e-06 1.50802e-05 0.0005 1.46608e-07 
17 1 0.0208855 0.0243356 0.0138711 0.000782095 -0.000438485 0.000306593 1.94175e-05 -5.26741e-06 6.07719e-06 0.0005 1.46608e-07 
18 1 0.0226272 0.0194995 0.0162932 0.0788372 -0.149276 0.146451 0 0 -1.43822e-06 0.0005 1.46608e-07 
19 1 0.0185101 0.0240733 0.0128051 -0.000192646 -0.000802921 -0.000122933 2.18993e-06 -4.7483e-08 -4.51807e-06 0.0005 1.46608e-07 
20 1 0.0263416 0.0217529 0.00823982 0.000264403 -0.0163613 -0.0135336 -2.0367e-09 -1.1971e-08 3.93706e-09 0.0005 1.46608e-07 
21 1 0.0217603 0.0166851 0.0162122 -0.0143803 -0.0216596 0.00590474 2.70409e-05 2.42514e-05 5.98635e-05 0.0005 1.46608e-07 
22 1 0.0179579 0.0188403 0.0169085 0.0175405 -0.00143208 6.61739e-05 1.40347e-06 -1.04955e-06 1.05768e-06 0.0005 1.46608e-07 
23 1 0.0179355 0.0243898 0.0138115 -0.00038348 -0.000541863 0.00040211 3.77237e-06 -6.4366e-07 1.19153e-06 0.0005 1.46608e-07 
24 1 0.0246087 0.0220303 0.0158082 0.013071 -0.0392882 0.00645257 0.000117382 -0.000298786 -3.84191e-05 0.0005 1.46608e-07 
25 1 0.0238783 0.017911 0.0159872 0.00952957 0.000584507 -0.0652905 -0.000137876 0.0001731 0.000148622 0.0005 1.46608e-07 
26 1 0.0203003 0.0189291 0.00716782 0.00517843 -0.00734929 0.000167214 1.56379e-06 8.30456e-06 -1.55004e-06 0.0005 1.46608e-07 
27 1 0.0209894 0.0225304 0.0154815 -0.00111373 -0.00384366 0.0175982 5.77175e-06 1.93796e-05 -1.87073e-05 0.0005 1.46608e-07 
28 1 0.0222532 0.022038 0.0149151 0.170559 -0.165081 -0.249462 -0.000160246 -0.000229225 0.000195117 0.0005 1.46608e-07 
29 1 0.0245236 0.0210407 0.0164446 0.0728588 -0.0969976 0.0886286 -0.000147003 6.12214e-05 -0.000216497 0.0005 1.46608e-07 
30 1 0.0200264 0.0239628 0.0146091 0.00235439 0.00251319 -0.00415256 -2.85189e-07 -6.45795e-06 2.23498e-05 0.0005 1.46608e-07 
31 1 0.0188579 0.0245045 0.0136396 -0.000254373 0.000136973 -0.000304786 -5.74942e-07 2.30286e-07 2.64933e-06 0.0005 1.46608e-07 
32 1 0.0235037 0.0157878 0.0144478 0.00352561 0.00717397 0.0090031 -3.39446e-06 3.28624e-07 8.05592e-07 0.0005 1.46608e-07 
33 1 0.0136351 0.0159131 0.0157033 0.0010019 0.000232469 -0.00212224 1.09135e-07 2.88025e-08 -2.33887e-07 0.0005 1.46608e-07 
34 1 0.0218131 0.0221015 0.0158512 0.00349012 -0.0173279 -0.00564911 1.68339e-05 -3.04655e-05 6.79455e-06 0.0005 1.46608e-07 
35 1 0.0224365 0.0203479 0.0157898 0.0232614 -0.051273 0.048645 -0.000239905 0.000714433 -8.59e-05 0.0005 1.46608e-07 
36 1 0.019907 0.0244327 0.0137061 -2.23864e-06 0.000172779 -5.20496e-05 5.91159e-06 -9.4911e-06 1.29395e-05 0.0005 1.46608e-07 
37 1 0.0226234 0.023484 0.013907 5.70155e-05 0.00508822 -0.00471228 -5.94473e-05 -6.15067e-05 9.41794e-05 0.0005 1.46608e-07 
38 1 0.0193247 0.0152249 0.0137898 -0.00531308 0.00107987 0.00555159 -3.69036e-07 4.6521e-06 7.43286e-06 0.0005 1.46608e-07 
39 1 0.0225175 0.0229299 0.0150838 -0.0263868 -0.0555214 -0.0750358 -4.99402e-05 -0.000402645 0.000117648 0.0005 1.46608e-07 
40 1 0.0213317 0.0238154 0.0131956 8.26674e-05 -0.000182583 -0.00244348 -1.45274e-05 6.82673e-06 1.26572e-05 0.0005 1.46608e-07 
41 1 0.0200871 0.0233577 0.0168983 -0.00155635 -0.00453659 0.000326942 0 0 -1.43822e-06 0.0005 1.46608e-07 
42 1 0.0243978 0.0149401 0.0102742 0.000460646 -0.0062542 0.0162547 -1.08131e-08 2.26587e-08 2.86283e-08 0.0005 1.46608e-07 
43 1 0.0167904 0.0238712 0.0134993 -0.00121846 0.000229968 0.00023888 1.81963e-05 -3.19596e-06 3.46984e-06 0.0005 1.46608e-07 
44 1 0.0193584 0.0216715 0.017062 0.00383353 0.00195792 0.00758324 -1.67778e-06 -3.0501e-07 2.5531e-07 0.0005 1.46608e-07 
45 1 0.0227287 0.0238326 0.0148109 -4.06042e-05 -0.00239513 0.00484188 -2.62626e-05 -0.000119406 0.000102146 0.0005 1.46608e-07 
46 1 0.0243386 0.0147695 0.0111464 5.41754e-05 -0.00250667 0.0208844 9.41694e-10 5.5252e-09 8.05335e-09 0.0005 1.46608e-07 
47 1 0.0203161 0.022287 0.0168447 -0.0038464 0.00587589 0.00947749 1.61429e-05 -2.61424e-06 2.04652e-06 0.0005 1.46608e-07 
48 1 0.0236858 0.0187471 0.016559 -0.0429742 -0.0262252 0.17224 0 0 -1.43822e-06 0.0005 1.46608e-07 
49 1 0.0204702 0.0237463 0.0156228 0.00428184 -0.000357292 0.0055765 -1.25672e-06 -8.54379e-07 -1.18859e-06 0.0005 1.46608e-07 
50 1 0.0218568 0.0239631 0.0137569 -0.000225652 0.00414398 -0.00369089 -2.76573e-05 -1.63894e-05 7.87487e-05 0.0005 1.46608e-07 
51 1 0.018942 0.0161028 0.00833121 0.000185791 -0.014516 0.0141627 -1.17467e-09 8.35687e-10 1.38545e-08 0.0005 1.46608e-07 
52 1 0.0227046 0.0185493 0.0166776 0.139719 -0.303044 0.343753 0.000213339 8.53071e-05 8.9139e-05 0.0005 1.46608e-07 
53 1 0.0233225 0.023292 0.015442 0.00994584 -0.0368045 -0.00747797 -0.000142742 -0.000286937 0.000266958 0.0005 1.46608e-07 
54 1 0.0190273 0.023064 0.0160317 0.00138433 9.17795e-05 0.0033709 -3.44156e-06 -1.68218e-06 -2.07029e-06 0.0005 1.46608e-07 
56 1 0.0230089 0.0161383 0.0164041 0.00924013 0.0439478 -0.0217423 0 0 -1.43822e-06 0.0005 1.46608e-07 
57 1 0.0182221 0.023528 0.0142162 -0.000760284 -0.00235429 0.00621545 2.11614e-05 8.22324e-07 -1.28194e-05 0.0005 1.46608e-07 
58 1 0.0217765 0.0226374 0.014278 -0.00105769 0.0146005 -0.0128419 6.12995e-06 -6.14247e-05 9.89497e-05 0.0005 1.46608e-07 
59 1 0.0239029 0.0148689 0.0125635 0.00100336 0.00501873 0.0147236 3.0266e-09 4.69991e-08 7.38197e-08 0.0005 1.46608e-07 
60 1 0.0192975 0.0148979 0.01664 -0.0615177 -0.0122354 0.0383459 3.30557e-05 0.000300376 0.00028202 0.0005 1.46608e-07 
61 1 0.0192727 0.0245628 0.017329 -0.000294912 0.000311658 8.9113e-05 7.93634e-07 4.17649e-07 7.46757e-07 0.0005 1.46608e-07 
62 1 0.0205571 0.0240975 0.0129728 4.76136e-05 0.000321674 0.000430931 4.08647e-06 1.1254e-06 -6.11029e-06 0.0005 1.46608e-07 
63 1 0.0238376 0.0226123 0.0159263 0.0360725 -0.025108 0.0292554 -7.3206e-05 -0.00032936 0.000454061 0.0005 1.46608e-07 
64 1 0.0241001 0.0207841 0.0155853 0.0133909 -0.08256 0.0724543 -0.000186764 -7.95997e-05 0.000118907 0.0005 1.46608e-07 
65 1 0.0223175 0.0145013 0.0141299 0.00448515 0.00143348 0.00192919 -7.39133e-07 -2.72011e-07 -1.80717e-07 0.0005 1.46608e-07 
66 1 0.0248948 0.0173197 0.0155926 -0.00338174 0.0130412 0.00925499 0 0 -1.43822e-06 0.0005 1.46608e-07 
67 1 0.0232323 0.0221152 0.0147433 0.0293772 -0.0888121 -0.143718 -7.14082e-05 0.000622554 -0.00045669 0.0005 1.46608e-07 
68 1 0.0245744 0.0164875 0.0151333 -0.00365863 0.00671526 0.00556053 1.32454e-07 -1.17528e-07 -6.98376e-08 0.0005 1.46608e-07 
69 1 0.0257798 0.0178745 0.0167233 -0.0149602 -0.00278107 -0.0280429 -3.74322e-07 1.70578e-07 -8.2154e-07 0.0005 1.46608e-07 
70 1 0.0251854 0.0217612 0.0166039 0.0231467 -0.0226074 0.0159352 -0.000107307 9.12663e-05 -6.92597e-05 0.0005 1.46608e-07 
71 1 0.020111 0.0211032 0.00771709 0.000518853 -0.0177369 -0.00897696 -3.53666e-09 -1.3381e-08 5.11951e-09 0.0005 1.46608e-07 
72 1 0.0246813 0.018416 0.0172037 0.0144949 -0.0445556 0.152454 0 0 -1.43822e-06 0.0005 1.46608e-07 
73 1 0.0224693 0.0234443 0.017243 0.00528293 0.000998197 0.00771521 6.4792e-06 2.27944e-06 1.12306e-06 0.0005 1.46608e-07 
74 1 0.0196821 0.0241253 0.0127626 -0.000309085 0.000328159 0.000144504 1.53045e-06 -1.44938e-06 6.44537e-07 0.0005 1.46608e-07 
75 1 0.0188604 0.0171834 0.0170653 -0.0416668 -0.0250587 -0.016482 0 0 -1.43822e-06 0.0005 1.46608e-07 
76 1 0.0191724 0.017055 0.00766548 0.00131631 -0.0141643 0.00774363 1.31237e-08 5.97163e-08 -1.76324e-08 0.0005 1.46608e-07 
78 1 0.0211332 0.0237686 0.0121914 -0.00222136 0.00110507 -0.00110137 2.92647e-06 -3.17512e-06 -7.27374e-06 0.0005 1.46608e-07 
79 1 0.0217595 0.0144966 0.0190053 -0.0618266 -0.166159 -0.0109195 0 0 -1.43822e-06 0.0005 1.46608e-07 
80 1 0.0169371 0.0229301 0.0136679 0.00405117 0.000609216 -0.00299584 -1.45258e-08 -4.36501e-06 8.60332e-06 0.0005 1.46608e-07 
81 1 0.0166382 0.0142202 0.0135947 0.00155853 0.000808172 -0.00319586 -2.03138e-08 -1.10743e-08 4.2948e-08 0.0005 1.46608e-07 
82 1 0.0164698 0.0237975 0.0149104 -0.000752061 -3.46059e-05 0.000283536 -7.55079e-06 6.55601e-07 -1.97036e-06 0.0005 1.46608e-07 
83 1 0.0208661 0.0239446 0.0166721 -0.000864153 -0.00173511 -0.00480837 0 0 -1.43822e-06 0.0005 1.46608e-07 
84 1 0.0189324 0.0145201 0.012628 -0.000213127 0.00231242 0.000645927 0 0 -1.43822e-06 0.0005 1.46608e-07 
85 1 0.0204928 0.0221784 0.00852211 -0.000546771 -0.0143184 -0.0139184 8.90725e-09 7.8533e-11 1.82386e-08 0.0005 1.46608e-07 
86 1 0.0212101 0.0218397 0.0167678 0.0079895 0.0231344 -0.0233769 0 0 -1.43822e-06 0.0005 1.46608e-07 
87 1 0.0205915 0.0226565 0.00916116 0.000384963 -0.0092531 -0.0152082 1.55171e-09 3.33644e-08 7.97462e-08 0.0005 1.46608e-07 
88 1 0.0244394 0.019922 0.0159431 -0.0829868 -0.0547088 0.123401 -0.000518904 0.000562153 6.78746e-05 0.0005 1.46608e-07 
89 1 0.0248638 0.0157731 0.0086476 0.0018879 -0.00709995 0.00658033 -1.3454e-06 1.01888e-06 1.88061e-07 0.0005 1.46608e-07 
90 1 0.0169112 0.0181468 0.0158559 0.00473218 0.00449635 0.00361305 1.51322e-06 7.44307e-07 -7.76814e-07 0.0005 1.46608e-07 
91 1 0.0192223 0.0238256 0.0134044 -0.000429787 0.00137411 -0.00186313 2.97275e-06 2.95953e-08 5.2664e-06 0.0005 1.46608e-07 
92 1 0.0205267 0.0164521 0.0160618 -0.000521009 0.00935661 0.00585928 2.65328e-08 -2.67837e-08 -9.99292e-09 0.0005 1.46608e-07 
93 1 0.0182849 0.0244981 0.0174705 0.000595342 0.000141298 -0.00049429 -4.22415e-07 -4.05154e-08 -1.06418e-06 0.0005 1.46608e-07 
95 1 0.0210112 0.0238719 0.0147451 0.00172227 -9.42415e-05 -0.000675818 -5.63996e-06 -3.21421e-08 3.44552e-05 0.0005 1.46608e-07 
96 1 0.0218607 0.0229886 0.0135367 0.00218109 0.0097952 -0.0162176 -9.58321e-05 -0.000177277 0.000222322 0.0005 1.46608e-07 
97 1 0.0171674 0.0241605 0.0143212 -0.000806086 -6.07535e-05 7.54839e-05 8.62142e-06 -4.53076e-06 2.85585e-06 0.0005 1.46608e-07 
98 1 0.0148224 0.0220057 0.0169629 0.000552266 0.00170315 -0.000114595 4.19665e-07 -2.72599e-07 -6.3155e-07 0.0005 1.46608e-07 
99 1 0.0195401 0.0146505 0.0205851 -0.157762 -0.188085 0.0277312 0 0 -1.43822e-06 0.0005 1.46608e-07 
100 1 0.0226144 0.0226288 0.0140803 -0.000175849 0.00973296 -0.0136786 3.09745e-05 -5.99729e-05 7.77739e-05 0.0005 1.46608e-07 
101 1 0.0183031 0.0200317 0.0174725 -0.00404248 0.00199096 0.0169982 0 0 -1.43822e-06 0.0005 1.46608e-07 
102 1 0.0232842 0.0230877 0.0144904 -0.000301941 -0.00505213 -0.0127624 1.98876e-05 -0.000113225 4.91561e-05 0.0005 1.46608e-07 
103 1 0.0163645 0.0232703 0.0128732 0.00435517 0.000971401 -0.00466934 4.85661e-06 -7.05949e-08 4.0677e-06 0.0005 1.46608e-07 
104 1 0.0197889 0.0146186 0.0131445 -0.000740509 0.00381903 0.00481416 2.0906e-07 -3.93437e-06 -1.08724e-05 0.0005 1.46608e-07 
105 1 0.0215145 0.0232892 0.0124914 0.00175816 0.003988 -0.00293008 -2.70257e-06 -7.86007e-06 -4.78422e-05 0.0005 1.46608e-07 
106 1 0.0194812 0.0237572 0.0154537 -0.00494714 0.000277109 0.00057828 3.29369e-06 -3.09869e-06 -1.72199e-05 0.0005 1.46608e-07 
108 1 0.0203993 0.0187271 0.00600944 -6.30569e-15 2.82679e-15 -5.7802e-14 -6.28128e-20 -4.87838e-20 5.0822e-21 0.0005 1.46608e-07 
109 1 0.023068 0.0174135 0.0157181 0.00388343 0.00440539 -0.0199697 -1.93444e-05 4.56307e-05 -0.000147316 0.0005 1.46608e-07 
110 1 0.0196975 0.0193595 0.00722378 0.000306401 -0.0167003 -0.00260766 -2.47533e-07 2.11345e-07 4.91428e-07 0.0005 1.46608e-07 
111 1 0.0176403 0.0147054 0.0140315 0.00502236 0.00711267 0.00624591 -2.9682e-07 1.0798e-06 1.08779e-06 0.0005 1.46608e-07 
112 1 0.0169985 0.0220332 0.0148128 0.00468133 0.00182619 -0.00119334 -4.53937e-06 2.7233e-06 -1.18491e-06 0.0005 1.46608e-07 
113 1 0.0194532 0.0181027 0.00729093 0.000458166 -0.0208992 0.00420159 5.97602e-09 1.40016e-08 6.89607e-09 0.0005 1.46608e-07 
114 1 0.0168752 0.023965 0.0168721 0.00029104 0.00116905 0.000903657 -3.0433e-06 -1.48802e-06 -3.0389e-06 0.0005 1.46608e-07 
115 1 0.0171673 0.0234579 0.0120776 0.00609913 0.000674779 -0.00779148 -6.25736e-09 3.29726e-09 1.60074e-08 0.0005 1.46608e-07 
116 1 0.0183542 0.0153751 0.0139819 7.98779e-05 0.0118387 0.0168479 4.00997e-07 5.59128e-07 2.74572e-07 0.0005 1.46608e-07 
117 1 0.0164706 0.0202155 0.0158294 0.00310891 0.00741908 0.00186205 2.90545e-07 -1.21381e-06 -7.55367e-06 0.0005 1.46608e-07 
118 1 0.0177033 0.0164774 0.0151328 0.00277851 -0.000436159 0.00148869 -9.57403e-08 -2.10086e-08 7.12695e-09 0.0005 1.46608e-07 
120 1 0.0236672 0.0152173 0.0134959 0.00136246 0.00846072 0.0144446 -8.05862e-09 2.23216e-08 1.62917e-08 0.0005 1.46608e-07 
121 1 0.0214315 0.0140479 0.0140323 0.00385288 0.00297626 -0.00104137 -3.66415e-07 1.70557e-07 -1.20079e-06 0.0005 1.46608e-07 
122 1 0.0267446 0.0230007 0.00976909 0.00400591 -0.00428684 -0.00763071 -2.20921e-09 -3.71919e-09 -3.87227e-08 0.0005 1.46608e-07 
123 1 0.0195148 0.0227936 0.0152018 -0.00413608 0.00115418 0.00135019 -5.81197e-06 -9.50884e-06 -1.44893e-06 0.0005 1.46608e-07 
124 1 0.0236125 0.015648 0.0152523 0.0437096 -0.0408787 -0.00937452 -5.60493e-05 3.46317e-05 9.68887e-06 0.0005 1.46608e-07 
125 1 0.026591 0.0226516 0.0090659 0.00312604 -0.00565563 -0.00657809 -4.49825e-09 1.62288e-08 -2.1759e-09 0.0005 1.46608e-07 
126 1 0.0186828 0.0223182 0.016708 0.00332496 0.000491708 0.00423481 -5.05877e-07 -4.11484e-07 -1.03317e-06 0.0005 1.46608e-07 
127 1 0.0223893 0.0151714 0.0162284 0.0199156 -0.00334466 -0.0128784 4.85641e-08 9.67365e-09 -1.30717e-06 0.0005 1.46608e-07 
128 1 0.0233313 0.0210481 0.0169678 -0.0109816 -0.0396888 -0.091833 0 0 -1.43822e-06 0.0005 1.46608e-07 
129 1 0.0178506 0.0176034 0.0168903 -0.0465485 0.00580967 -0.0387074 0 0 -1.43822e-06 0.0005 1.46608e-07 
130 1 0.0171251 0.0193882 0.0168256 0.0193324 -0.0124089 -0.000532003 0 0 -1.43822e-06 0.0005 1.46608e-07 
131 1 0.0180625 0.0209303 0.0167234 -0.00138241 0.00923608 0.00802542 0 0 -1.43822e-06 0.0005 1.46608e-07 
132 1 0.0156909 0.0202596 0.0166446 -0.00175491 0.00252417 -0.00247011 -2.44329e-09 1.0757e-05 1.0377e-05 0.0005 1.46608e-07 
133 1 0.0253966 0.0170083 0.0164021 0.00130353 -0.0143072 0.00872885 0 0 -1.43822e-06 0.0005 1.46608e-07 
134 1 0.0222159 0.0179299 0.0190412 -0.0682418 -0.105737 -0.00277012 0 0 -1.43822e-06 0.0005 1.46608e-07 
135 1 0.0260952 0.0208289 0.00763611 -3.18087e-05 -0.0196548 -0.00865578 2.97597e-08 -1.73303e-07 -7.04578e-08 0.0005 1.46608e-07 
136 1 0.022828 0.0219768 0.0157634 0.198056 -0.0289547 0.0909213 0 0 -1.43822e-06 0.0005 1.46608e-07 
137 1 0.017152 0.0213408 0.016673 -0.0058216 0.00228785 0.00416168 0 0 -1.43822e-06 0.0005 1.46608e-07 
138 1 0.0183924 0.0154787 0.0149756 -0.00528223 0.0121735 0.0168804 -3.36133e-06 1.1148e-06 -2.41993e-06 0.0005 1.46608e-07 
139 1 0.0136798 0.0219726 0.0158636 0.000956153 0.00112054 0.000845757 -1.23995e-07 -8.7114e-08 3.11677e-08 0.0005 1.46608e-07 
141 1 0.0255495 0.0208441 0.0164522 0.0480682 -0.0343102 0.0529147 -3.55575e-05 1.59645e-05 -1.24068e-05 0.0005 1.46608e-07 
142 1 0.0270074 0.0232977 0.0106437 0.00223652 -0.00365679 -0.012841 4.76923e-09 1.06667e-08 2.6557e-08 0.0005 1.46608e-07 
143 1 0.0191887 0.0204882 0.0166954 -0.0229395 -0.0233186 0.0263065 -6.44514e-06 -3.16569e-05 1.05872e-05 0.0005 1.46608e-07 
144 1 0.0194866 0.0220232 0.0158396 0.00244329 -0.00690984 0.00606799 -6.55054e-08 1.53658e-06 -7.79261e-07 0.0005 1.46608e-07 
145 1 0.0167143 0.02289 0.0152074 -0.000562852 -2.56323e-05 0.00109377 -1.79065e-05 9.51838e-07 7.19545e-06 0.0005 1.46608e-07 
146 1 0.0179223 0.0147909 0.0130578 0.00617298 0.0110379 -0.013766 0 0 -1.43822e-06 0.0005 1.46608e-07 
147 1 0.0194613 0.0137207 0.0134387 2.52719e-05 0.00140696 -0.00320173 2.18032e-08 3.31899e-07 -7.45282e-07 0.0005 1.46608e-07 
148 1 0.0158283 0.019278 0.0167806 0.00205788 -0.00116433 -0.00157891 -7.85021e-08 6.73066e-07 -3.17482e-07 0.0005 1.46608e-07 
149 1 0.0197717 0.0194009 0.0234437 -0.159699 -0.0849078 0.174777 0 0 -1.43822e-06 0.0005 1.46608e-07 
150 1 0.0207457 0.0187136 0.0186979 -0.108344 -0.107035 -0.00339552 0 0 -1.43822e-06 0.0005 1.46608e-07 
151 1 0.0197773 0.0249311 0.0181097 0.000823536 -3.50669e-05 -0.000527969 3.67047e-07 -1.89042e-07 2.15286e-06 0.0005 1.46608e-07 
152 1 0.0162388 0.0225602 0.0142289 0.00498863 0.000279721 -0.00221922 8.90158e-07 -3.4424e-06 4.93661e-06 0.0005 1.46608e-07 
153 1 0.0175035 0.0234185 0.0149005 -0.00272823 0.00382024 0.00807141 -3.33665e-06 -1.8602e-05 1.84281e-06 0.0005 1.46608e-07 
154 1 0.0241519 0.0193052 0.0175976 -0.00837568 -0.0458904 -0.108288 0 0 -1.43822e-06 0.0005 1.46608e-07 
155 1 0.0156942 0.0233785 0.015381 -5.77787e-05 -6.98647e-05 -3.23947e-05 -7.9036e-07 -4.30349e-08 8.87068e-07 0.0005 1.46608e-07 
156 1 0.0225455 0.0154506 0.0172881 -0.0711754 -0.121565 -0.0826349 0 0 -1.43822e-06 0.0005 1.46608e-07 
157 1 0.0161158 0.0235138 0.014049 -0.00129486 0.000129794 0.000778203 7.97522e-06 3.14133e-06 -8.77519e-06 0.0005 1.46608e-07 
158 1 0.0170503 0.0236417 0.0157786 0.00133161 0.000539238 0.000875954 -1.19352e-07 -4.41626e-07 -9.72654e-07 0.0005 1.46608e-07 
159 1 0.0174871 0.0207341 0.0175176 0.00342744 0.00678907 0.0125943 0 0 -1.43822e-06 0.0005 1.46608e-07 
160 1 0.0176841 0.0227977 0.0156647 -0.00449194 0.00176681 0.00298502 0 0 -1.43822e-06 0.0005 1.46608e-07 
161 1 0.015844 0.0144949 0.0141366 0.00223943 -0.000925143 -0.00131929 -2.10675e-08 -5.51655e-09 3.72508e-08 0.0005 1.46608e-07 
162 1 0.0215612 0.0233493 0.0155084 0.0495962 -0.035522 0.0743296 -8.79552e-06 2.75496e-05 -5.45945e-05 0.0005 1.46608e-07 
163 1 0.0185269 0.0222584 0.0156823 0.00327248 0.00111518 0.010716 0 0 -1.43822e-06 0.0005 1.46608e-07 
164 1 0.0173689 0.0231183 0.0166761 0.000242425 0.00179754 0.00280311 -6.62074e-06 -4.32431e-06 -4.82525e-06 0.0005 1.46608e-07 
165 1 0.0197909 0.0211824 0.0163047 -0.0274717 -0.0244753 0.00693368 2.74185e-05 3.74091e-05 4.09477e-06 0.0005 1.46608e-07 
166 1 0.0246899 0.0206132 0.0180977 0.0189624 -0.0297522 -0.0732628 0 0 -1.43822e-06 0.0005 1.46608e-07 
167 1 0.0258046 0.0199095 0.0166938 0.0180392 -0.056377 0.0282245 7.29049e-06 3.23132e-06 4.24346e-05 0.0005 1.46608e-07 
168 1 0.0237564 0.0217133 0.0154859 -0.00752228 -0.064084 0.0117519 0.00025574 4.31477e-05 -1.75496e-05 0.0005 1.46608e-07 
169 1 0.0146575 0.0218105 0.0159961 0.000919903 -0.0010278 0.00118223 -7.99326e-07 -8.28235e-07 -1.31413e-06 0.0005 1.46608e-07 
170 1 0.0162685 0.021118 0.0154586 0.00412234 0.00574646 7.90108e-06 2.19291e-06 4.42988e-08 3.03885e-08 0.0005 1.46608e-07 
171 1 0.0185559 0.0229824 0.0149856 -0.00153835 -0.00130262 -0.000783249 0 0 -1.43822e-06 0.0005 1.46608e-07 
173 1 0.0181808 0.0177187 0.015743 0.00279222 0.00905459 0.00210809 -1.20474e-07 1.03953e-07 4.23824e-08 0.0005 1.46608e-07 
174 1 0.0156101 0.0230238 0.0134265 0.00449489 0.00109887 -0.00363828 -2.18668e-06 8.68693e-07 1.77852e-06 0.0005 1.46608e-07 
175 1 0.0160285 0.021914 0.0149093 0.00430282 0.00161511 -0.00137512 -1.95977e-06 5.53375e-07 2.41152e-06 0.0005 1.46608e-07 
176 1 0.0157131 0.0232526 0.0173276 0.000191768 -0.00121133 -0.00187295 4.75836e-07 -3.18312e-07 -6.42948e-07 0.0005 1.46608e-07 
177 1 0.0162241 0.0240482 0.0176529 0.00198723 -0.000835757 -0.00478846 -6.40388e-07 -4.94703e-07 -1.9536e-06 0.0005 1.46608e-07 
178 1 0.0159912 0.015903 0.0157406 0.00291754 0.00415154 0.00451671 -1.11685e-07 -6.86152e-08 -1.12828e-07 0.0005 1.46608e-07 
179 1 0.0184904 0.0138958 0.0132752 -0.000540148 0.000467867 -0.000915364 7.7409e-08 4.03269e-07 -1.13951e-06 0.0005 1.46608e-07 
180 1 0.0197504 0.0144303 0.0142225 -0.00876565 -0.0113596 -0.0139404 1.33116e-07 -1.98692e-07 -1.08438e-06 0.0005 1.46608e-07 
181 1 0.0234143 0.0200757 0.0158887 0.109692 -0.444579 0.161818 0 0 -1.43822e-06 0.0005 1.46608e-07 
182 1 0.0181731 0.0236794 0.0155957 0.00428066 0.00442004 0.00914974 -2.50884e-07 -9.89879e-07 1.17053e-06 0.0005 1.46608e-07 
183 1 0.0189704 0.0167113 0.0191843 -0.171002 -0.157101 0.00247336 0 0 -1.43822e-06 0.0005 1.46608e-07 
184 1 0.0159707 0.0219586 0.0159108 0.00718868 0.00405237 -0.00262162 -1.19315e-06 4.95916e-06 8.71004e-07 0.0005 1.46608e-07 
185 1 0.017971 0.0219338 0.0149068 0.00444599 0.00214904 -0.00136374 -1.19177e-06 2.67717e-06 -8.38883e-06 0.0005 1.46608e-07 
186 1 0.0209018 0.0186862 0.0167369 -0.00754363 -0.023901 -0.00245217 4.04585e-08 4.39043e-07 9.3875e-08 0.0005 1.46608e-07 
187 1 0.0204802 0.0218236 0.0159705 -0.0253481 -0.0184245 -0.000866841 1.96959e-05 1.02134e-05 -1.13485e-05 0.0005 1.46608e-07 
188 1 0.0233977 0.0173036 0.0172001 -0.037212 -0.0899578 -0.0930625 0 0 -1.43822e-06 0.0005 1.46608e-07 
189 1 0.0171316 0.0172044 0.0155538 0.00281606 0.00680392 0.00347866 -4.7664e-07 -2.76106e-06 -1.30672e-06 0.0005 1.46608e-07 
190 1 0.0177436 0.0186936 0.0159429 0.0124761 -0.00307413 0.00250819 3.47384e-06 4.74036e-06 -2.96912e-06 0.0005 1.46608e-07 
191 1 0.0202277 0.0146593 0.0157705 -0.0215944 0.00141153 -0.0168022 1.09896e-09 3.49885e-08 -2.36605e-07 0.0005 1.46608e-07 
192 1 0.0187135 0.0164241 0.0150989 0.000700517 0.0104737 0.00858291 -3.99607e-08 -8.63783e-08 -5.63949e-08 0.0005 1.46608e-07 
193 1 0.0177918 0.0220543 0.0163361 0.00127441 0.00224541 0.000850161 0 0 -1.43822e-06 0.0005 1.46608e-07 
194 1 0.0181677 0.0211537 0.0154823 0.00460423 0.00333123 0.00235227 1.42766e-06 5.80324e-07 -5.70582e-07 0.0005 1.46608e-07 
196 1 0.0224805 0.0240943 0.0184497 -0.0297004 0.0215375 -0.0270943 -1.96272e-07 -3.36086e-07 -1.04882e-06 0.0005 1.46608e-07 
197 1 0.0209435 0.0229685 0.0164657 0.00392901 -0.00311095 -0.001307 -1.17054e-06 -2.76562e-07 -8.18896e-07 0.0005 1.46608e-07 
199 1 0.0172388 0.0223317 0.0172799 0.00038112 0.000782193 -0.00142276 9.70816e-07 5.54369e-07 -9.02029e-07 0.0005 1.46608e-07 
200 1 0.022509 0.0228775 0.0160943 -0.00460509 -0.0220884 -0.00106481 -9.03189e-05 -4.21665e-05 -4.87412e-05 0.0005 1.46608e-07 
201 1 0.0214893 0.0148418 0.0146442 0.0037217 0.00116759 0.00445595 -3.49433e-07 -3.63284e-07 -6.12857e-07 0.0005 1.46608e-07 
202 1 0.0205508 0.0248948 0.0187427 0.000862071 -0.00107656 -0.00180707 -4.85104e-07 -4.92556e-07 -7.22347e-07 0.0005 1.46608e-07 
203 1 0.021919 0.0224068 0.0172597 -0.0383234 0.0444235 0.0764237 0 0 -1.43822e-06 0.0005 1.46608e-07 
204 1 0.0208469 0.0229836 0.017461 0.00272341 -0.00177593 -0.00190936 0 0 -1.43822e-06 0.0005 1.46608e-07 
205 1 0.0175262 0.0156988 0.0144396 0.000501419 0.0141786 0.0155534 -2.33394e-07 4.32129e-08 -2.32559e-08 0.0005 1.46608e-07 
206 1 0.0168464 0.0224759 0.0161161 -0.00071112 0.00495752 0.000211149 -2.20661e-06 2.27089e-06 -2.81404e-06 0.0005 1.46608e-07 
208 1 0.025174 0.0194045 0.0172896 0.00892488 -0.0478354 0.0343815 -0.000184745 0.000150948 -1.98653e-05 0.0005 1.46608e-07 
209 1 0.0224301 0.0217862 0.0166641 0.0173785 -0.070426 0.111047 0 0 -1.43822e-06 0.0005 1.46608e-07 
210 1 0.0166831 0.0192255 0.0159398 0.0135307 -0.0271314 -0.00178629 0 0 -1.43822e-06 0.0005 1.46608e-07 
211 1 0.0202539 0.0212513 0.0172126 0.00268631 -3.18913e-05 0.00429714 -3.62694e-06 -2.17577e-06 4.79945e-06 0.0005 1.46608e-07 
212 1 0.0188636 0.0240323 0.0162279 0.00488596 0.00326026 0.00532841 -1.18872e-06 2.83201e-07 5.14187e-07 0.0005 1.46608e-07 
213 1 0.0223222 0.0232189 0.0129147 0.003098 0.00233954 -0.0113179 -4.22104e-05 -2.74687e-05 0.000141881 0.0005 1.46608e-07 
214 1 0.0205987 0.0143741 0.0147489 0.00174245 -0.00862059 -0.0300152 8.4333e-08 -5.20069e-08 -1.27346e-06 0.0005 1.46608e-07 
215 1 0.0248627 0.0161846 0.0160508 -0.00249617 0.00311487 -0.0114235 -3.14401e-07 1.26887e-07 -1.05683e-06 0.0005 1.46608e-07 
216 1 0.0205143 0.0141418 0.0136452 0.00504128 0.00197922 -0.00451999 -8.40365e-08 3.89514e-08 -1.4309e-06 0.0005 1.46608e-07 
217 1 0.0163226 0.0232791 0.0163988 -0.000192609 0.00327517 0.00285967 -1.01923e-07 -1.7535e-07 -1.56995e-06 0.0005 1.46608e-07 
218 1 0.0183557 0.0232624 0.0167454 0.000375908 -0.000862737 0.00382728 1.3857e-06 -1.1431e-06 -3.18645e-06 0.0005 1.46608e-07 
219 1 0.0218105 0.0164568 0.01719 -0.052511 -0.117482 0.00139668 0 0 -1.43822e-06 0.0005 1.46608e-07 
220 1 0.0218087 0.023469 0.0164931 -0.00489485 0.0054834 0.00357488 -1.27315e-05 -5.12594e-05 -5.74874e-05 0.0005 1.46608e-07 
221 1 0.0130167 0.0210476 0.0163549 -0.000258304 0.00170839 0.00074709 -1.94653e-06 -2.18692e-06 1.63473e-06 0.0005 1.46608e-07 
223 1 0.020775 0.0209734 0.0164058 -0.00741232 -0.0227529 0.0063972 6.52271e-06 -3.31032e-06 3.62962e-06 0.0005 1.46608e-07 
224 1 0.0141652 0.0227109 0.0152832 0.000720645 0.00109627 0.00126594 2.38937e-07 5.66137e-07 3.19058e-07 0.0005 1.46608e-07 
225 1 0.014906 0.0231878 0.0148056 -0.000155902 -0.00056628 0.000324306 -3.34892e-07 -2.95523e-07 4.37758e-07 0.0005 1.46608e-07 
226 1 0.0248075 0.0182303 0.016092 0.00512353 0.00453852 -0.0128305 -3.48429e-05 0.000247517 0.000147207 0.0005 1.46608e-07 
227 1 0.0199124 0.0221466 0.0177486 0.0104714 0.00587968 0.00415966 -1.12511e-05 4.98986e-07 6.27228e-06 0.0005 1.46608e-07 
228 1 0.0199688 0.0176875 0.0165651 -0.0173018 -0.0165667 -0.00813337 1.03843e-07 5.94125e-08 -4.76192e-07 0.0005 1.46608e-07 
229 1 0.0168287 0.0149952 0.0149206 0.000171805 -0.000209976 0.00200954 -2.24558e-07 -1.00182e-07 -5.13812e-07 0.0005 1.46608e-07 
230 1 0.0182697 0.0147372 0.0156351 -0.00531514 0.00591422 0.00664869 -2.52764e-05 2.78981e-06 -2.6223e-05 0.0005 1.46608e-07 
231 1 0.01971 0.0159219 0.0167737 -0.119299 -0.144537 -0.117153 0 0 -1.43822e-06 0.0005 1.46608e-07 
232 1 0.0155922 0.0225958 0.0165823 0.00109925 0.000344134 -0.000321657 0 0 -1.43822e-06 0.0005 1.46608e-07 
233 1 0.0163899 0.0220001 0.0168686 -0.000920329 0.000744792 -0.00207155 -9.70816e-07 -5.54369e-07 -1.97441e-06 0.0005 1.46608e-07 
234 1 0.0150184 0.0157317 0.0155811 0.00653284 -0.00620742 -0.00740661 -8.83851e-08 -2.52441e-07 -1.69975e-07 0.0005 1.46608e-07 
235 1 0.0187782 0.0214338 0.016236 0.0086888 -0.00699613 0.0173684 0 0 -1.43822e-06 0.0005 1.46608e-07 
236 1 0.0182669 0.0226999 0.0175782 0.0254557 0.00643728 0.0192163 0 0 -1.43822e-06 0.0005 1.46608e-07 
237 1 0.0193897 0.0158642 0.0146019 0.000931627 0.00938481 0.0102955 -5.0396e-08 -1.02714e-07 1.59754e-07 0.0005 1.46608e-07 
238 1 0.0167809 0.0231934 0.0175013 -0.00267231 -0.00190851 -0.00187421 0 0 -1.43822e-06 0.0005 1.46608e-07 
239 1 0.0188549 0.0236723 0.0175084 7.9811e-05 0.00155388 0.00341057 4.56016e-06 -8.27336e-08 3.19868e-06 0.0005 1.46608e-07 
240 1 0.0187266 0.0210113 0.0174685 0.00551332 -0.00117419 0.00564773 0 0 -1.43822e-06 0.0005 1.46608e-07 
241 1 0.0217679 0.0210921 0.016378 -0.00364151 0.00558645 -0.0020392 4.9969e-08 4.37581e-07 -1.09931e-06 0.0005 1.46608e-07 
242 1 0.019605 0.018752 0.0178919 -0.0656042 -0.0999816 -0.0698816 0 0 -1.43822e-06 0.0005 1.46608e-07 
243 1 0.0191685 0.0143424 0.0158225 -0.0168884 -0.0110485 -0.0180299 7.63209e-05 0.000286671 0.000468599 0.0005 1.46608e-07 
244 1 0.023825 0.022097 0.0179293 0.00877257 -0.00802867 -0.0961173 0 0 -1.43822e-06 0.0005 1.46608e-07 
246 1 0.0241847 0.016991 0.0164797 0.00446477 -0.0169896 -0.0111898 -1.12548e-05 -7.62411e-06 -1.79567e-05 0.0005 1.46608e-07 
247 1 0.0233817 0.0152045 0.0159047 0.00496102 0.000633118 0.00210571 -1.34983e-05 1.99597e-05 1.17671e-05 0.0005 1.46608e-07 
248 1 0.0216347 0.0148978 0.0156319 0.00386681 0.00270765 0.00453992 8.21728e-08 -1.91665e-07 -8.04902e-07 0.0005 1.46608e-07 
249 1 0.0173618 0.0206392 0.0157417 0.00423886 0.00469506 0.001574 4.81801e-06 -7.27612e-06 9.94931e-06 0.0005 1.46608e-07 
250 1 0.0204136 0.0230843 0.0148751 0.00331628 0.00225665 -0.00160147 9.31668e-06 6.55257e-06 -6.36205e-06 0.0005 1.46608e-07 
251 1 0.0161527 0.0224495 0.0177299 -0.00228262 -0.000895143 0.000269384 0 0 -1.43822e-06 0.0005 1.46608e-07 
252 1 0.0195165 0.0160423 0.0157387 -0.00843587 0.00361571 -0.00327273 -2.26819e-07 -1.54359e-07 -3.1519e-07 0.0005 1.46608e-07 
253 1 0.0140135 0.02112 0.0163249 -0.000800955 -9.6264e-05 0.00129446 1.0436e-06 -7.11515e-07 2.22135e-08 0.0005 1.46608e-07 
254 1 0.018344 0.0200036 0.0164726 -0.00934601 -0.00666793 0.0169448 -5.74826e-05 -5.22751e-05 2.14974e-05 0.0005 1.46608e-07 
255 1 0.0178409 0.0241154 0.0166604 -0.000317515 -0.000351765 -0.000517647 4.44545e-07 -3.96482e-07 3.76632e-07 0.0005 1.46608e-07 
256 1 0.0209915 0.0244059 0.0179897 -0.000502862 0.000509349 0.000428479 -1.75032e-05 2.50032e-05 4.03247e-05 0.0005 1.46608e-07 
257 1 0.0190236 0.0193609 0.0168332 0.00377262 0.0159796 -0.0247936 0 0 -1.43822e-06 0.0005 1.46608e-07 