ITEM: TIMESTEP
14600000
ITEM: NUMBER OF ATOMS
130
ITEM: BOX BOUNDS ff ff ff
-0.02 0.43
-0.02 0.06
-0.02 0.07
ITEM: ATOMS id type x y z vx vy vz fx fy fz radius mass 
1 1 0.0168398 0.0233731 0.0125533 0.00221907 0.00209344 -0.00125448 8.57943e-06 -9.32907e-07 6.99292e-06 0.0005 1.46608e-07 
2 1 0.0184414 0.0204225 0.0159933 -0.0682125 -0.10916 -0.0667234 0 0 -1.43822e-06 0.0005 1.46608e-07 
4 1 0.0152299 0.0233054 0.014628 0.00267815 0.00157082 -0.000711987 -1.25213e-08 6.64039e-09 2.27837e-08 0.0005 1.46608e-07 
5 1 0.0350417 0.0195308 0.015804 0.00176968 0.0147242 -0.00048434 6.50835e-09 -2.28628e-08 -1.2009e-08 0.0005 1.46608e-07 
11 1 0.0241227 0.0225693 0.0156326 0.0047561 -0.00433959 0.00305083 -2.84254e-07 -5.20227e-08 -1.42025e-06 0.0005 1.46608e-07 
15 1 0.00938048 0.0183393 0.00587271 3.64406e-15 5.45736e-16 -3.6901e-14 -9.58206e-21 2.27938e-20 -6.35275e-22 0.0005 1.46608e-07 
16 1 0.0260148 0.0196703 0.00594114 1.76443e-14 2.84318e-15 -2.87664e-13 -3.97047e-22 2.50967e-21 0 0.0005 1.46608e-07 
17 1 0.0326877 0.0213296 0.00779064 0.00203574 -0.00561769 -0.00481583 -2.38097e-07 7.69317e-07 6.0395e-08 0.0005 1.46608e-07 
18 1 0.0366849 0.0218066 0.0435188 -9.6879e-317 9.73506e-317 2.68131e-13 0 0 0 0.0005 1.46608e-07 
19 1 0.0174758 0.0230926 0.0133622 7.98554e-05 0.00147359 -0.00292736 5.8276e-06 -2.82957e-06 3.61418e-06 0.0005 1.46608e-07 
20 1 0.0391568 0.0226413 0.00910256 0.000702032 -0.00701554 -0.0117833 -1.6502e-09 -1.20734e-08 4.04529e-10 0.0005 1.46608e-07 
24 1 0.0312908 0.015602 0.00893793 0.000140665 -0.0140606 0.0171344 -1.73136e-09 6.29527e-09 9.28326e-09 0.0005 1.46608e-07 
25 1 0.0197878 0.0240994 0.0129342 -0.000118352 -0.000471394 5.94217e-05 -9.57916e-07 -1.50607e-08 5.76056e-08 0.0005 1.46608e-07 
27 1 0.000591717 0.0149731 0.0435188 9.71467e-317 9.75789e-317 -8.23806e-13 0 0 0 0.0005 1.46608e-07 
28 1 0.0357175 0.0165923 0.014916 0.000681417 0.0143706 0.0075516 -7.11029e-09 1.28141e-08 6.04304e-09 0.0005 1.46608e-07 
31 1 0.0215948 0.0233952 0.0111659 0.000823727 -0.00186237 -0.0190899 -2.71193e-07 -2.91629e-07 -1.45276e-06 0.0005 1.46608e-07 
32 1 0.023192 0.0196423 0.0159133 6.40466e-10 0.020406 -0.00255407 1.77229e-15 -1.55078e-09 -1.3608e-08 0.0005 1.46608e-07 
33 1 0.0198932 0.0160421 0.0147668 -4.8896e-05 0.0171023 0.0157468 5.00148e-08 -9.65021e-08 -6.44224e-08 0.0005 1.46608e-07 
35 1 0.0175195 0.0243332 0.0139692 0.00136772 0.000949245 -0.00104945 -8.71316e-06 2.51244e-06 2.06773e-06 0.0005 1.46608e-07 
37 1 0.0341471 0.0229358 0.0134267 0.000195017 0.00850336 -0.0182726 -1.87906e-07 2.26492e-08 2.9488e-08 0.0005 1.46608e-07 
41 1 0.0208335 0.0140937 0.013231 -0.00120126 -0.000930053 0.00156039 -1.74937e-08 -4.98215e-09 3.16581e-09 0.0005 1.46608e-07 
43 1 0.0233768 0.0185839 0.0159306 -2.26765e-05 0.0204029 0.00195581 2.87976e-07 -5.7552e-07 -1.16282e-07 0.0005 1.46608e-07 
44 1 0.0272101 0.0228095 0.00927367 0.00111536 -0.00885705 -0.0142354 -9.74671e-09 -3.79247e-08 -1.76546e-08 0.0005 1.46608e-07 
47 1 0.0189353 0.0160227 0.01504 -6.89655e-05 0.0189455 0.0159547 1.90231e-07 -1.65255e-06 3.42648e-07 0.0005 1.46608e-07 
49 1 0.003617 0.0285782 0.0435188 -9.68849e-317 -9.75601e-317 2.88878e-12 0 0 0 0.0005 1.46608e-07 
52 1 0.0386355 0.0210671 0.00767979 0.000857932 -0.0158253 -0.00786377 -1.04542e-08 -1.09505e-07 -4.1578e-08 0.0005 1.46608e-07 
57 1 0.0196051 0.0193773 0.00612808 -3.58965e-14 1.60989e-14 -3.28527e-13 7.14684e-22 5.28072e-21 0 0.0005 1.46608e-07 
59 1 0.03654 0.014808 0.0120693 7.12519e-05 0.00167107 0.0226491 -9.16603e-10 1.20221e-08 3.11702e-09 0.0005 1.46608e-07 
62 1 0.0200924 0.0186762 0.00720306 0.000560874 -0.0206353 0.000607796 1.75066e-08 3.54549e-08 5.03488e-09 0.0005 1.46608e-07 
63 1 0.012245 0.0156406 0.0240762 0.0581702 0.0169857 -0.0957748 0 0 -1.43822e-06 0.0005 1.46608e-07 
65 1 0.0353342 0.0184217 0.0156581 0.000133857 0.0219423 0.00454912 3.61096e-10 5.06317e-09 -1.17026e-08 0.0005 1.46608e-07 
67 1 0.0359488 0.0160256 0.0145516 0.00362388 0.0046161 0.00668352 1.07774e-08 -5.71204e-08 -6.10867e-08 0.0005 1.46608e-07 
68 1 0.0369659 0.0149267 0.0103274 0.000350694 -0.00451736 0.0181547 -1.53239e-09 1.21806e-08 1.62934e-08 0.0005 1.46608e-07 
71 1 0.0174114 0.0234825 0.011785 0.000662966 0.000693231 -5.76574e-05 1.73428e-06 4.87317e-07 1.39503e-06 0.0005 1.46608e-07 
73 1 0.0192834 0.0238096 0.0137477 0.000427146 -0.00200401 0.000382786 0 0 -1.43822e-06 0.0005 1.46608e-07 
74 1 0.0281165 0.0229136 0.0133936 -0.000293032 0.0117988 -0.0191682 -6.29886e-10 -7.10867e-09 -9.52856e-09 0.0005 1.46608e-07 
76 1 0.016795 0.0238169 0.0135265 0.00223034 0.00341022 -0.00289081 4.27929e-06 4.8291e-06 9.77754e-06 0.0005 1.46608e-07 
79 1 0.0334332 0.0232548 0.0103912 0.00150621 -0.00485474 -0.0156135 -1.18444e-08 -2.52686e-08 -3.41966e-08 0.0005 1.46608e-07 
84 1 0.0295072 0.0176254 0.015561 0.000220542 0.016934 0.00787945 -3.17584e-09 -6.53921e-08 -3.27949e-08 0.0005 1.46608e-07 
87 1 0.0343175 0.0224869 0.0141221 0.000924138 0.0135435 -0.0130995 2.97971e-07 3.36044e-08 -1.77359e-07 0.0005 1.46608e-07 
88 1 0.0329968 0.0199891 0.00743333 0.000222613 -0.0204445 -0.00433977 1.5233e-08 -2.13568e-08 -3.31138e-10 0.0005 1.46608e-07 
89 1 0.0376518 0.0166089 0.00792623 0.000818432 -0.013324 0.00984157 -1.01631e-08 -7.86833e-08 8.01123e-08 0.0005 1.46608e-07 
90 1 0.0278713 0.0233201 0.0121269 9.64491e-05 0.00385889 -0.0214318 9.60564e-09 -1.36362e-09 8.94226e-09 0.0005 1.46608e-07 
92 1 0.0332397 0.0228823 0.00947253 0.000867967 -0.00794949 -0.0151622 3.84407e-07 4.52321e-07 1.07765e-06 0.0005 1.46608e-07 
97 1 0.0198347 0.0175565 0.00742445 0.000891279 -0.0180604 0.0067685 -5.76056e-09 2.36468e-08 -1.36433e-09 0.0005 1.46608e-07 
103 1 0.0317519 0.0171453 0.00761522 3.66067e-05 -0.0198957 0.00936375 4.59641e-10 -1.36354e-10 1.33954e-08 0.0005 1.46608e-07 
106 1 0.0175928 0.0175367 0.0156782 -1.96552e-06 0.0216536 0.00786578 -4.73417e-08 2.16518e-07 3.14946e-08 0.0005 1.46608e-07 
108 1 0.0214483 0.0168437 0.00645098 -2.39432e-14 5.09242e-14 1.84315e-13 2.36428e-19 1.04926e-19 -2.11758e-22 0.0005 1.46608e-07 
109 1 0.0224789 0.0223199 0.0145152 0.00186665 0.00508738 -0.00438775 -6.48403e-07 -1.61057e-06 9.63224e-07 0.0005 1.46608e-07 
110 1 0.0210872 0.0240094 0.0127769 -0.00144211 0.0032562 0.00451506 -4.00734e-08 -4.7506e-08 2.62158e-07 0.0005 1.46608e-07 
112 1 0.03045 0.0149138 0.0124495 0.000967352 0.00415577 0.0169023 -1.10026e-09 2.45599e-09 3.47053e-09 0.0005 1.46608e-07 
116 1 0.0228698 0.0235098 0.0143726 -0.000271757 0.000395528 -2.28195e-05 7.05176e-08 -4.44439e-08 -5.39178e-08 0.0005 1.46608e-07 
121 1 0.0551527 0.0181697 0.00595147 -1.30118e-14 -1.76761e-14 -2.51654e-13 -7.59683e-21 -1.57495e-20 1.27055e-21 0.0005 1.46608e-07 
122 1 0.0398226 0.0233512 0.0119888 0.000327037 0.00261598 -0.0210006 -2.82207e-10 -9.14757e-09 -6.22067e-09 0.0005 1.46608e-07 
124 1 0.0221979 0.0230493 0.0138983 0.00139828 0.00267202 -0.0044637 -3.04989e-08 -1.09723e-07 2.33862e-07 0.0005 1.46608e-07 
125 1 0.0393871 0.0231736 0.010209 0.000738177 -0.00611361 -0.0181853 -4.75283e-09 -1.41479e-08 -6.78809e-09 0.0005 1.46608e-07 
126 1 0.0216325 0.0238994 0.013615 -0.0032749 0.000789789 -0.00254665 -5.04138e-08 1.35298e-08 -3.67141e-08 0.0005 1.46608e-07 
128 1 0.0303903 0.00406748 0.0435188 -9.67556e-317 -9.75879e-317 -3.22607e-12 0 0 0 0.0005 1.46608e-07 
130 1 0.0248853 0.0148052 0.0108029 0.000252456 -0.0037048 0.0209377 -1.17448e-09 9.78462e-09 9.04054e-09 0.0005 1.46608e-07 
131 1 0.0352349 0.0210801 0.0152045 -0.000252178 0.0172844 -0.00930253 -2.95839e-08 -5.66366e-08 1.6919e-08 0.0005 1.46608e-07 
133 1 0.0247415 0.0217441 0.0158344 -0.00121496 0.00100251 -0.0011985 -1.54531e-08 -3.36469e-07 8.75394e-08 0.0005 1.46608e-07 
135 1 0.0379262 0.0179619 0.00731397 0.000250376 -0.0188548 0.00330475 1.44642e-07 5.81122e-08 2.04164e-07 0.0005 1.46608e-07 
137 1 0.0307275 0.0188227 0.00574705 -1.48123e-14 6.81145e-17 -1.73752e-13 -1.27055e-21 -2.32847e-19 -2.11758e-22 0.0005 1.46608e-07 
138 1 0.0187884 0.0241018 0.0129021 3.29766e-05 -0.000537356 0.000102189 1.3903e-07 1.60029e-08 -5.71678e-08 0.0005 1.46608e-07 
139 1 0.0285054 0.0219398 0.0146223 0.000478976 0.0145339 -0.0141667 -3.43068e-09 -9.76969e-10 -1.33243e-08 0.0005 1.46608e-07 
141 1 0.0262358 0.0191458 0.00717542 0.0018642 -0.016523 0.000483465 -1.51749e-08 -3.84291e-08 7.59812e-09 0.0005 1.46608e-07 
142 1 0.040723 0.0211316 0.0152313 0.000964101 0.0149863 -0.00935344 -6.42192e-09 1.51191e-08 -2.2096e-08 0.0005 1.46608e-07 
143 1 0.0319481 0.018102 0.00725967 0.00087846 -0.0188867 0.00438977 -6.69906e-09 -1.47146e-08 1.49658e-08 0.0005 1.46608e-07 
147 1 0.0297073 0.0167311 0.0151378 0.00090988 0.0166571 0.0107666 -7.61761e-09 2.3205e-08 2.08939e-09 0.0005 1.46608e-07 
149 1 0.0570019 0.0175547 0.00590579 4.33412e-15 1.18988e-14 2.80767e-13 -5.10867e-21 1.22555e-20 -4.23516e-22 0.0005 1.46608e-07 
150 1 0.0194424 0.0176966 0.015739 -0.000332758 0.0221311 0.00704267 -4.95632e-08 1.79398e-07 -2.52958e-08 0.0005 1.46608e-07 
151 1 0.0221544 0.0144596 0.0140417 -0.00320596 -0.000311248 -0.00259971 1.62588e-08 -1.0271e-08 3.34214e-08 0.0005 1.46608e-07 
157 1 0.0196025 0.0167777 0.0153785 4.91913e-05 0.0203655 0.0118255 1.13701e-07 1.14631e-07 1.23764e-07 0.0005 1.46608e-07 
158 1 0.0212072 0.0227932 0.00933451 0.00027846 -0.00793976 -0.0129501 3.81885e-09 5.79701e-09 2.13199e-08 0.0005 1.46608e-07 
160 1 0.0362384 0.0152597 0.0134902 0.000171938 0.00981356 0.0188426 -6.59924e-10 1.2222e-08 3.95449e-10 0.0005 1.46608e-07 
161 1 0.0221348 0.00230077 0.0435188 9.74157e-317 -9.69799e-317 9.23294e-13 0 0 0 0.0005 1.46608e-07 
165 1 0.0186741 0.0146165 0.0119486 0.00583655 0.00166101 0.00147953 0 0 -1.43822e-06 0.0005 1.46608e-07 
166 1 0.0309007 0.0148635 0.0106333 0.000168624 -0.00379973 0.0189471 1.33895e-08 1.81083e-08 -3.85847e-08 0.0005 1.46608e-07 
167 1 0.0166699 0.0228018 0.0138831 0.00246245 -0.00345045 0.002495 0 0 -1.43822e-06 0.0005 1.46608e-07 
170 1 0.0207317 0.0213337 0.00792477 0.00128538 -0.0165849 -0.00890821 -1.88661e-08 -6.97092e-08 -5.49598e-08 0.0005 1.46608e-07 
171 1 0.0161057 0.0232066 0.0131574 0.00293423 0.00291508 -0.00321167 5.38168e-06 4.87313e-07 1.32452e-05 0.0005 1.46608e-07 
173 1 0.0240076 0.0212339 0.015386 -0.00322767 0.00149089 0.00112049 -1.56947e-07 2.00072e-06 -1.12158e-06 0.0005 1.46608e-07 
174 1 0.0223975 0.0233871 0.0109207 0.000919719 -0.00271692 -0.0181449 1.99004e-06 -6.99736e-07 -1.54484e-06 0.0005 1.46608e-07 
179 1 0.067984 0.0193424 0.00575613 3.90903e-15 7.51814e-15 2.61625e-13 -7.17133e-20 2.84947e-20 2.11758e-22 0.0005 1.46608e-07 
185 1 0.0330639 0.0224067 0.00872926 0.00440995 -0.00399813 -0.00702155 -1.7388e-07 9.06376e-07 9.48686e-07 0.0005 1.46608e-07 
186 1 0.0315488 0.0162784 0.00819707 0.000622989 -0.0144743 0.0131825 -3.9896e-09 -1.84573e-09 1.64498e-08 0.0005 1.46608e-07 
187 1 0.0306863 0.0147472 0.0115537 0.00407989 -0.0013814 0.00592254 1.06227e-08 2.40693e-08 -3.45132e-08 0.0005 1.46608e-07 
191 1 0.0178095 0.0166615 0.0152458 -0.000125336 0.01942 0.0123501 6.91578e-08 8.22191e-08 1.60257e-07 0.0005 1.46608e-07 
193 1 0.0245476 0.0198163 0.00585259 2.60861e-15 4.20028e-16 -4.25291e-14 -3.97047e-23 -2.23835e-21 0 0.0005 1.46608e-07 
194 1 0.0300378 0.0157176 0.0142856 0.00123166 0.0117321 0.0137184 -3.89531e-09 1.41087e-08 -1.70312e-09 0.0005 1.46608e-07 
197 1 0.0323291 0.0195665 0.0073243 -0.00031843 -0.0212958 -0.00343161 4.55613e-09 -1.68127e-08 1.29528e-08 0.0005 1.46608e-07 
200 1 0.0209807 0.022194 0.00858842 0.000355665 -0.0141258 -0.0141122 -1.36823e-09 -1.25627e-08 -7.65909e-11 0.0005 1.46608e-07 
205 1 0.0324758 0.0205245 0.00751504 0.00100943 -0.0160116 -0.00446962 -7.37333e-08 5.68604e-08 7.25486e-08 0.0005 1.46608e-07 
206 1 0.02425 0.0191749 0.0159411 0.000688273 0.0224046 -0.000641692 -1.65657e-07 -4.73542e-07 -1.44217e-08 0.0005 1.46608e-07 
215 1 0.026935 0.0188837 0.00598981 1.4303e-14 2.30419e-15 -2.33189e-13 1.19114e-22 -3.10854e-21 0 0.0005 1.46608e-07 
224 1 0.0247427 0.0205484 0.015688 -2.03785e-09 0.0193853 -0.00677539 -3.65139e-15 -4.39533e-09 -1.29451e-08 0.0005 1.46608e-07 
225 1 0.0198914 0.0146154 0.0119488 -2.35526e-06 0.00152264 -0.0025304 -4.27278e-11 -2.2846e-08 4.23688e-08 0.0005 1.46608e-07 
226 1 0.0373398 0.0157438 0.00874286 0.000266189 -0.0132234 0.0161036 -1.09974e-09 4.67949e-09 1.17424e-08 0.0005 1.46608e-07 
227 1 0.0266146 0.0208822 0.00761319 0.00180507 -0.00829487 -0.00548122 -3.93166e-05 -8.08271e-05 -2.29752e-05 0.0005 1.46608e-07 
228 1 0.0235976 0.0175147 0.0156709 0.000545367 0.0193646 0.00706925 -5.34053e-09 2.34056e-08 -3.65162e-09 0.0005 1.46608e-07 
229 1 0.0348398 0.0203697 0.015544 0.00085386 0.0175659 -0.00664722 -3.1008e-09 -5.23702e-09 -1.2644e-08 0.0005 1.46608e-07 
232 1 0.0221996 0.00109062 0.0435188 9.58743e-317 9.68145e-317 4.97437e-14 0 0 0 0.0005 1.46608e-07 
235 1 0.0239287 0.0165179 0.0153546 0.00119679 0.0350763 0.0117347 0 0 -1.43822e-06 0.0005 1.46608e-07 
237 1 0.0345915 0.021619 0.0148212 -0.000239296 0.0179463 -0.0121452 6.61958e-09 7.23413e-09 -2.96902e-08 0.0005 1.46608e-07 
240 1 0.0223651 0.0231934 0.0130661 0.000540588 0.000579726 -0.0015777 2.81553e-08 -5.37394e-08 1.41884e-07 0.0005 1.46608e-07 
241 1 0.0269315 0.0219712 0.00834666 0.000538781 -0.0152548 -0.0137054 -3.36872e-09 -1.37198e-08 2.61202e-09 0.0005 1.46608e-07 
242 1 0.0245969 0.0147555 0.0119025 0.00107341 0.000529083 0.0171559 -6.25034e-10 2.9116e-08 4.87751e-09 0.0005 1.46608e-07 
247 1 0.0389006 0.021983 0.00831209 0.00095189 -0.0145213 -0.0123246 -8.73202e-09 -1.94947e-08 -7.02714e-09 0.0005 1.46608e-07 
252 1 0.018018 0.015858 0.0146885 -1.31105e-06 0.0163771 0.016866 2.6247e-08 -1.89323e-07 6.31446e-08 0.0005 1.46608e-07 
253 1 0.0239877 0.0220402 0.0147947 -0.000521314 0.00167148 0.000481694 -4.99333e-07 5.74173e-07 -2.14263e-07 0.0005 1.46608e-07 
256 1 0.0233845 0.0225828 0.0142101 0.000419991 0.00205428 -0.000822991 -1.78701e-06 -2.10164e-09 -8.35413e-07 0.0005 1.46608e-07 
257 1 0.0230306 0.0233836 0.0115836 0.000445837 0.00180813 -0.0213689 -9.40092e-08 -1.01203e-07 -1.44278e-06 0.0005 1.46608e-07 
258 1 0.0328727 0.0218652 0.00821015 0.00333301 -0.00194617 -0.00280761 2.89028e-08 2.856e-08 2.73358e-07 0.0005 1.46608e-07 
260 1 0.108836 0.0200055 0.00584234 7.67086e-16 -1.26308e-15 -6.97592e-15 0 -2.59404e-21 4.23516e-22 0.0005 1.46608e-07 
263 1 0.0232086 0.0206844 0.0156324 -0.00711068 0.0155569 -0.00598664 7.13553e-07 8.26867e-07 -3.56984e-07 0.0005 1.46608e-07 
268 1 0.0188748 0.0148276 0.0138075 -0.0114574 -0.0913783 -0.0114188 0 0 -1.43822e-06 0.0005 1.46608e-07 
269 1 0.0275485 0.0233463 0.010839 0.0011947 -0.00257731 -0.0200822 1.29881e-07 1.20521e-06 5.51489e-06 0.0005 1.46608e-07 
270 1 0.0252385 0.0187874 0.0159418 -0.00012871 0.0204133 0.0013813 -6.49439e-08 -4.18928e-08 -1.32004e-08 0.0005 1.46608e-07 
271 1 0.0292588 0.0188356 0.0158268 0.00118385 0.0188894 0.00135256 -5.5591e-09 7.19573e-08 -1.64667e-08 0.0005 1.46608e-07 
272 1 0.0244521 0.0180519 0.0158305 3.76759e-08 0.0199696 0.00469438 2.05472e-11 1.85798e-09 -1.35315e-08 0.0005 1.46608e-07 
274 1 0.0182891 0.0237252 0.0136834 0.000882028 -0.00260183 0.000877868 0 0 -1.43822e-06 0.0005 1.46608e-07 
275 1 0.0239901 0.0159086 0.0145471 0.00132083 0.0104102 0.0245543 -9.4831e-08 -4.08665e-07 4.58482e-07 0.0005 1.46608e-07 
277 1 0.0190514 0.0150706 0.00993431 0.000453745 -0.00730677 0.0197586 -5.38748e-09 4.0514e-09 1.22078e-08 0.0005 1.46608e-07 
282 1 0.0196756 0.0167012 0.00788921 0.000308038 -0.0190262 0.012762 1.2754e-06 9.47373e-08 5.05151e-07 0.0005 1.46608e-07 
284 1 0.00937694 0.00505359 0.0435188 -9.68799e-317 -9.69932e-317 9.23294e-13 0 0 0 0.0005 1.46608e-07 
288 1 0.0186665 0.0171048 0.0155081 -5.49921e-05 0.02055 0.0100069 -3.69434e-09 2.26671e-07 1.03798e-07 0.0005 1.46608e-07 
291 1 0.0176169 0.0240089 0.0129985 0.000806081 -0.000247816 -0.00240256 -4.13108e-06 -3.46276e-06 -3.01138e-06 0.0005 1.46608e-07 
294 1 0.0234138 0.0230999 0.0151439 0.00655359 -0.00374487 -0.0147464 0 0 -1.43822e-06 0.0005 1.46608e-07 
299 1 0.0254808 0.018723 0.00589902 -2.08044e-14 -3.25225e-15 3.38791e-13 -1.53525e-21 -1.98722e-20 -4.23516e-22 0.0005 1.46608e-07 
300 1 0.0311029 0.0151452 0.00971208 0.000232664 -0.00839275 0.0189638 -2.03066e-09 8.46699e-09 7.82286e-09 0.0005 1.46608e-07 
