ITEM: TIMESTEP
4200000
ITEM: NUMBER OF ATOMS
243
ITEM: BOX BOUNDS ff ff ff
-0.02 0.43
-0.02 0.06
-0.02 0.07
ITEM: ATOMS id type x y z vx vy vz fx fy fz radius mass 
1 1 0.0137214 0.0217589 0.0150387 -6.32139e-05 -0.000966296 0.00019489 -1.18374e-08 -1.39835e-06 3.31291e-07 0.0005 1.46608e-07 
2 1 0.0167825 0.0232828 0.0146455 0.00337803 0.000959074 -0.00436167 2.60079e-06 -2.52928e-07 4.86424e-07 0.0005 1.46608e-07 
3 1 0.0195796 0.0237265 0.0153555 -0.00366554 -0.00588832 -0.00820507 0 0 -1.43822e-06 0.0005 1.46608e-07 
4 1 0.0198543 0.0226997 0.0155563 0.0220995 0.0549344 0.00085394 0 0 -1.43822e-06 0.0005 1.46608e-07 
5 1 0.0258205 0.0210918 0.0152601 -0.00281678 0.000257266 0.000791647 1.72505e-05 9.30704e-06 -3.49759e-05 0.0005 1.46608e-07 
7 1 0.01982 0.0182523 0.015875 0.000548071 0.0202895 0.00360108 -2.0957e-10 3.26768e-09 -1.33718e-08 0.0005 1.46608e-07 
9 1 0.0171919 0.023791 0.0166253 -0.00438673 0.025676 -0.0649767 0 0 -1.43822e-06 0.0005 1.46608e-07 
10 1 -0.0123164 0.00973291 0.0540593 -0.226252 -0.151658 -0.173203 0 0 -1.43822e-06 0.0005 1.46608e-07 
11 1 0.0185078 0.0155326 0.0154042 0.0180455 0.00877494 0.00829001 -3.66283e-07 -3.16552e-07 -7.71279e-07 0.0005 1.46608e-07 
12 1 0.0191308 0.0239457 0.0162847 0.0275412 -0.00212191 -0.0451451 0 0 -1.43822e-06 0.0005 1.46608e-07 
13 1 0.0186984 0.0243441 0.0135026 0.000394006 0.00384152 -0.00557376 -8.60176e-08 -6.34438e-07 5.5852e-07 0.0005 1.46608e-07 
14 1 0.0158959 0.0175047 0.016629 0.0192326 0.0377472 0.0158964 9.84285e-07 -1.6736e-06 8.66212e-08 0.0005 1.46608e-07 
15 1 0.00938048 0.0183393 0.00587271 3.64494e-15 5.40779e-16 -3.6901e-14 -1.64113e-21 -2.36243e-21 -2.11758e-22 0.0005 1.46608e-07 
16 1 0.0131284 0.0194187 0.0167854 0.00983957 0.015417 -0.00100874 5.64157e-08 2.67423e-07 -5.02791e-08 0.0005 1.46608e-07 
17 1 0.022435 0.0227685 0.015196 0.00119698 -0.000556856 0.00120159 1.05339e-07 -1.71724e-07 2.76066e-07 0.0005 1.46608e-07 
18 1 0.0172091 0.0184446 0.0168801 -0.00494596 0.00086263 0.0099284 0 0 -1.43822e-06 0.0005 1.46608e-07 
19 1 0.0195835 0.0240054 0.0127023 -0.000655545 0.00120616 -0.000823312 1.58943e-06 -6.45083e-07 1.41135e-07 0.0005 1.46608e-07 
20 1 0.0278697 0.0160121 0.00843075 -2.20587e-05 -0.0160071 0.0149297 2.03116e-08 1.18464e-07 -1.17048e-07 0.0005 1.46608e-07 
23 1 0.0176995 0.0242445 0.0135065 0.000752075 0.00462503 -0.00228608 -6.23384e-07 -2.02187e-07 -5.43716e-07 0.0005 1.46608e-07 
24 1 0.0251695 0.0217901 0.0165974 6.65301e-05 -0.000996049 0.0011536 1.67932e-05 -2.74747e-05 2.89312e-05 0.0005 1.46608e-07 
25 1 0.0153397 0.0221541 0.0157141 0.002489 0.000549556 -0.00337996 -2.09414e-07 -3.15433e-06 2.01133e-06 0.0005 1.46608e-07 
26 1 0.0221986 0.0340337 0.0422496 0.135406 0.015155 -0.120538 0 0 -1.43822e-06 0.0005 1.46608e-07 
27 1 0.0154249 0.0164104 0.0158982 -0.00915107 0.0161369 0.00121749 0 0 -1.43822e-06 0.0005 1.46608e-07 
28 1 0.0252677 0.020104 0.0158178 0.0325355 -0.0815643 0.0281643 -0.000429912 0.0012557 -8.055e-05 0.0005 1.46608e-07 
29 1 0.0161912 0.0143512 0.013933 0.00115524 -0.00208593 0.00512917 -1.72355e-06 1.10911e-06 -2.40671e-06 0.0005 1.46608e-07 
30 1 0.0177776 0.0138017 0.0170192 0.0577139 -0.0184421 -0.0451196 0 0 -1.43822e-06 0.0005 1.46608e-07 
31 1 0.0196646 0.0244692 0.0136214 -1.04835e-05 0.00156073 -0.00178258 -1.80545e-07 -5.12893e-07 7.48834e-07 0.0005 1.46608e-07 
32 1 0.0162009 0.0149951 0.0147005 0.00977893 0.00940301 0.00848817 -9.03373e-07 -1.22441e-06 -1.60011e-06 0.0005 1.46608e-07 
33 1 0.0171787 0.0225986 0.0154016 0.000397513 -0.00401946 -0.000560223 -8.33778e-07 1.29106e-05 3.76341e-06 0.0005 1.46608e-07 
34 1 0.0171276 0.0140134 0.0138379 0.000396129 -0.00169466 0.00413981 1.08841e-06 -3.01021e-07 6.00471e-07 0.0005 1.46608e-07 
35 1 0.0188034 0.0208875 0.0164944 0.00266183 0.0191106 -0.00120858 0 0 -1.43822e-06 0.0005 1.46608e-07 
36 1 0.0208806 0.02309 0.0146484 0.00497194 0.00553479 -0.00408888 4.24224e-07 2.5612e-07 -4.90981e-07 0.0005 1.46608e-07 
37 1 0.0234712 0.0226952 0.00920269 0.00237725 -0.000953965 -0.00424133 2.09861e-08 -1.41058e-08 4.92007e-08 0.0005 1.46608e-07 
40 1 0.0213516 0.0239525 0.0133225 -7.02286e-05 -0.00104112 0.000432234 2.7906e-07 -1.6265e-07 7.5545e-07 0.0005 1.46608e-07 
41 1 0.0180439 0.0162676 0.0159441 -0.000292167 0.00643797 0.00421362 1.68605e-08 -8.76607e-08 -4.34626e-08 0.0005 1.46608e-07 
43 1 0.0182436 0.0240371 0.0126917 0.000850266 0.000673397 -0.0022272 9.1816e-07 1.244e-06 2.93377e-06 0.0005 1.46608e-07 
44 1 0.0171693 0.0235904 0.0156319 0.00587572 0.00346568 0.000978299 0 0 -1.43822e-06 0.0005 1.46608e-07 
45 1 0.0170244 0.0211238 0.0173647 -0.00277869 -0.00281733 0.00153111 -3.07504e-08 3.21995e-07 -1.05305e-06 0.0005 1.46608e-07 
47 1 0.0148616 0.0153446 0.0139534 0.000125171 0.000148494 -0.000622037 8.53871e-08 -8.2447e-08 -2.56254e-07 0.0005 1.46608e-07 
49 1 0.0151671 0.0181675 0.0206053 0.0531612 0.0722738 0.104687 0 0 -1.43822e-06 0.0005 1.46608e-07 
50 1 0.0217539 0.024148 0.0142066 0.000878388 -0.000963137 0.000673761 3.74775e-07 2.79857e-07 2.05987e-07 0.0005 1.46608e-07 
51 1 0.016223 0.0234997 0.0168741 0.00274138 0.00163898 0.000261306 6.8709e-07 1.52902e-06 -9.43464e-07 0.0005 1.46608e-07 
52 1 0.0238502 0.0153021 0.0151611 0.000956542 0.000148845 0.00107272 -2.1581e-07 -3.01837e-07 -4.18229e-07 0.0005 1.46608e-07 
53 1 0.01783 0.0142976 0.0159074 0.0552456 -0.0170685 -0.0429278 1.46213e-07 4.56592e-07 -7.30572e-07 0.0005 1.46608e-07 
54 1 0.00908377 0.0218316 0.0294165 0.0456856 -0.0286877 -0.225575 0 0 -1.43822e-06 0.0005 1.46608e-07 
57 1 0.0197578 0.0235056 0.0139121 0.010016 0.00365896 2.67809e-05 0 0 -1.43822e-06 0.0005 1.46608e-07 
59 1 0.0258335 0.0177678 0.0156203 0.000211813 0.0207353 0.00774403 -1.34401e-10 6.90889e-09 -8.35763e-09 0.0005 1.46608e-07 
62 1 0.0206186 0.024347 0.0138384 -0.000360351 -7.32003e-05 -7.47955e-05 -5.74172e-08 -4.03585e-08 6.48672e-07 0.0005 1.46608e-07 
63 1 0.0157956 0.0185764 0.0167194 0.0043406 0.0137533 0.0060332 1.89524e-06 -5.23725e-06 4.24322e-07 0.0005 1.46608e-07 
64 1 0.0245036 0.0223519 0.0161008 -8.09709e-05 -0.000950347 0.000788789 1.85264e-06 -3.81386e-05 2.07166e-05 0.0005 1.46608e-07 
65 1 0.0231952 0.0145463 0.0151636 0.000565881 0.00029862 0.000531072 2.39545e-06 1.33291e-06 1.36471e-06 0.0005 1.46608e-07 
67 1 0.0256015 0.0192374 0.0159038 0.0191875 -0.0486901 0.0133141 -0.000349511 0.00129058 -0.00022995 0.0005 1.46608e-07 
68 1 0.0263325 0.0160962 0.0146208 0.000831494 0.0102775 0.00978145 7.81792e-09 -3.18405e-08 -2.26925e-08 0.0005 1.46608e-07 
69 1 0.0220333 0.0213099 0.0162385 -0.00463903 0.000943769 -0.00275151 9.58423e-09 7.18248e-08 -7.78508e-08 0.0005 1.46608e-07 
71 1 0.021529 0.0143027 0.0136996 0.00300292 -0.000323153 0.00177611 -7.87618e-06 4.16355e-06 3.3855e-06 0.0005 1.46608e-07 
73 1 0.0150857 0.0163006 0.0168425 0.0090034 0.018874 -0.0101862 0 0 -1.43822e-06 0.0005 1.46608e-07 
74 1 0.0204829 0.0240917 0.0129065 -0.000303615 0.000820453 -0.000332548 8.03571e-07 -1.36355e-07 4.08294e-07 0.0005 1.46608e-07 
75 1 0.0175106 0.0218584 0.0159865 0.00314713 -0.00336939 0.00193045 4.47548e-07 1.04101e-06 -1.25047e-06 0.0005 1.46608e-07 
76 1 0.0156009 0.0157681 0.0144945 0.00358412 0.00366881 0.00443957 -8.68261e-09 8.285e-07 -7.49182e-07 0.0005 1.46608e-07 
78 1 0.0216676 0.0154796 0.00902939 0.000291848 -0.0118429 0.0171422 -3.04747e-08 -4.35371e-07 3.46124e-07 0.0005 1.46608e-07 
79 1 0.0169387 0.0165085 0.0161039 -0.000157615 0.0112319 0.00539795 1.45828e-08 -8.63493e-08 -5.11174e-08 0.0005 1.46608e-07 
80 1 0.0122981 0.0199691 0.0166984 0.0010629 0.00228092 -0.000124802 6.04863e-08 3.46722e-07 1.55522e-07 0.0005 1.46608e-07 
81 1 0.0191486 0.0212707 0.0154202 -0.000222005 0.0197009 -0.0138789 -5.14031e-06 8.43083e-06 -7.35578e-06 0.0005 1.46608e-07 
82 1 0.0182311 0.0237073 0.0156442 -0.0485478 -0.010563 -0.0122557 2.75348e-07 -4.00633e-07 -9.64948e-07 0.0005 1.46608e-07 
83 1 0.0168612 0.0147054 0.012448 0.00705244 -0.000394262 -0.00850631 -1.08543e-08 -2.1972e-08 5.21313e-08 0.0005 1.46608e-07 
84 1 0.0186438 0.0137891 0.0139133 0.00156243 -0.000363363 -0.00193431 -9.32653e-07 -1.69419e-08 9.03771e-07 0.0005 1.46608e-07 
85 1 0.00956909 0.0221751 0.0284121 0.0857779 -0.0701624 -0.257346 0 0 -1.43822e-06 0.0005 1.46608e-07 
86 1 0.0201736 0.0232605 0.0128585 -0.000739271 0.00284874 -0.00269649 7.68694e-07 -6.34509e-07 2.49682e-06 0.0005 1.46608e-07 
87 1 0.0236215 0.0230376 0.00980326 0.00283875 -0.00151074 -0.00634532 -8.9675e-10 5.42242e-08 6.54452e-08 0.0005 1.46608e-07 
88 1 0.0267641 0.0150426 0.0128461 0.000473429 0.00366632 0.0143162 1.49552e-08 -7.0267e-08 -5.7773e-08 0.0005 1.46608e-07 
89 1 0.0272721 0.0148681 0.0105169 0.000207714 -0.00701136 0.0215124 1.53041e-08 1.23697e-08 -1.16595e-07 0.0005 1.46608e-07 
90 1 0.0147364 0.0229289 0.0184144 0.017051 0.00967722 -0.0132168 -2.96018e-08 -2.22036e-07 -4.19662e-07 0.0005 1.46608e-07 
91 1 0.0219019 0.0161516 0.00833266 0.000497284 -0.00966943 0.00837871 -1.81764e-06 -7.31587e-06 5.36966e-06 0.0005 1.46608e-07 
92 1 0.0185691 0.0154372 0.0204197 0.103641 0.00377026 -0.519166 0 0 -1.43822e-06 0.0005 1.46608e-07 
93 1 0.0150099 0.0174407 0.0156448 0.00293473 0.00576946 0.00149712 -2.701e-07 3.14094e-07 1.26445e-06 0.0005 1.46608e-07 
95 1 0.01555 0.0191586 0.0159445 0.00374906 0.00415754 -0.000728827 -6.5262e-07 1.51802e-06 -7.6405e-07 0.0005 1.46608e-07 
97 1 0.0173574 0.0240724 0.0144302 0.00314293 0.00105809 -0.00142937 4.65651e-08 2.03428e-08 -1.16449e-06 0.0005 1.46608e-07 
98 1 0.0311331 0.0111709 0.0394244 -0.0880117 0.0395824 -0.201236 -3.40651e-07 2.07903e-07 -8.36367e-07 0.0005 1.46608e-07 
99 1 0.0202718 0.0207081 0.0156567 -0.000684981 0.0242389 -0.00870839 -5.3211e-06 1.42775e-05 -6.08832e-06 0.0005 1.46608e-07 
101 1 0.0230444 0.0224509 0.0159224 0.00102175 -0.00166526 0.000910566 4.62677e-07 3.40135e-07 4.77609e-08 0.0005 1.46608e-07 
102 1 0.0225687 0.0235764 0.0141537 0.00172531 -0.00114461 0.00079031 -2.05947e-07 7.61273e-08 -6.1682e-08 0.0005 1.46608e-07 
103 1 0.0221659 0.0151907 0.0136962 -0.00156601 0.00361183 0.00574752 -4.53202e-08 -4.8713e-06 -2.79223e-07 0.0005 1.46608e-07 
104 1 0.0251445 0.0208708 0.0156648 0.0095716 -0.0416891 0.0101533 -6.38681e-05 0.000250027 -0.000240893 0.0005 1.46608e-07 
105 1 0.0239039 0.0206255 0.0165364 -1.12627e-07 0.0236791 -0.00751861 -1.45006e-12 -5.60863e-09 -1.76911e-08 0.0005 1.46608e-07 
106 1 0.0142611 0.0215346 0.0158548 0.00359467 0.00254832 -0.000840371 4.66667e-06 -7.99313e-06 7.02164e-06 0.0005 1.46608e-07 
108 1 0.0203993 0.0187271 0.00600944 -6.41725e-15 2.69882e-15 -5.7796e-14 -2.22134e-19 -4.98585e-19 -2.11758e-22 0.0005 1.46608e-07 
109 1 0.0157869 0.0208606 0.01706 -0.00309293 -0.0200617 -0.0169161 -8.01769e-07 3.65056e-07 6.05405e-07 0.0005 1.46608e-07 
110 1 0.0152476 0.0146967 0.01461 0.00427124 -0.00133496 -0.00432671 1.23134e-07 6.13582e-08 -3.12197e-07 0.0005 1.46608e-07 
111 1 0.0136846 0.0188833 0.01594 -0.00011325 0.0206435 0.000817194 1.59477e-07 -1.81516e-07 3.36509e-08 0.0005 1.46608e-07 
112 1 0.0207732 0.014948 0.0132168 0.0037257 0.00308108 0.00571941 1.4544e-07 -1.72609e-07 -9.65386e-07 0.0005 1.46608e-07 
113 1 0.0147392 0.0182873 0.0172331 0.0403423 -0.0238609 -0.0486541 0 0 -1.43822e-06 0.0005 1.46608e-07 
114 1 0.0147098 0.0196985 0.0158958 0.00306574 0.00339744 -4.0019e-05 8.1322e-07 1.82962e-06 -5.96825e-07 0.0005 1.46608e-07 
115 1 0.0193612 0.0203876 0.0158318 -0.000216177 0.0238762 -0.0073075 -1.29681e-06 7.43314e-06 -3.21769e-06 0.0005 1.46608e-07 
116 1 0.0142317 0.0205503 0.015683 0.00634811 0.00452551 -0.000254605 -2.12084e-06 -4.40148e-06 3.10027e-06 0.0005 1.46608e-07 
117 1 0.0203325 0.0161547 0.0148873 0.00269172 0.00708479 0.00737585 7.92907e-09 -8.42163e-08 -5.83658e-08 0.0005 1.46608e-07 
118 1 0.014761 0.0202364 0.0173186 -0.00638809 0.0029972 -0.00682615 -4.17747e-07 4.56521e-07 -3.85412e-07 0.0005 1.46608e-07 
121 1 0.0544363 0.0169556 0.006117 0.0201211 0.0585649 -0.0300405 -2.02769e-07 -9.83971e-08 3.3962e-07 0.0005 1.46608e-07 
122 1 0.0283904 0.0182724 0.00725076 0.000665635 -0.0197221 0.00389697 -3.36617e-09 -8.8633e-09 1.15109e-08 0.0005 1.46608e-07 
124 1 0.0218579 0.0221574 0.0157376 -0.00406083 0.00176087 -0.00183278 1.51066e-07 1.22829e-07 -3.8053e-08 0.0005 1.46608e-07 
125 1 0.0281039 0.0170576 0.00765513 0.000964289 -0.0153881 0.00720384 3.30619e-09 9.75616e-09 6.15511e-09 0.0005 1.46608e-07 
126 1 0.0171862 0.0210008 0.0163856 0.000307814 -0.00193156 0.00199195 4.43657e-07 1.13032e-06 -6.55168e-07 0.0005 1.46608e-07 
127 1 0.0190537 0.0146037 0.01435 0.0143405 -0.00184278 0.00265332 0 0 -1.43822e-06 0.0005 1.46608e-07 
128 1 0.0210321 0.0228355 0.0165516 -0.00672807 -0.0990677 -0.0101797 0 0 -1.43822e-06 0.0005 1.46608e-07 
129 1 0.0187797 0.0139923 0.0163321 0.00011868 9.40688e-05 0.000589272 8.45754e-09 4.761e-08 -1.4064e-06 0.0005 1.46608e-07 
130 1 0.0165519 0.0152949 0.0155908 0.0309625 0.010776 0.0173854 0 0 -1.43822e-06 0.0005 1.46608e-07 
131 1 0.0140226 0.0154651 0.0153833 -0.000383698 0.000969431 0.00147442 -1.71124e-07 -1.07142e-07 -1.37569e-06 0.0005 1.46608e-07 
132 1 0.0189151 0.0231799 0.0148395 -0.0310547 0.02918 -0.0175638 0 0 -1.43822e-06 0.0005 1.46608e-07 
133 1 0.0259871 0.0200927 0.0171411 -0.00466173 -0.00132333 -0.00888624 0.0001557 -0.000372405 0.000392798 0.0005 1.46608e-07 
134 1 0.023202 0.0233305 0.0148866 0.000248669 0.00165926 0.00299274 2.44125e-07 -4.33447e-07 -1.39212e-06 0.0005 1.46608e-07 
135 1 0.0276215 0.0154313 0.00915216 0.000700873 -0.010051 0.0167224 1.93261e-09 -1.89512e-08 8.38562e-08 0.0005 1.46608e-07 
137 1 0.0205744 0.0236357 0.0154284 -0.00219002 9.1771e-05 -0.00209538 1.01752e-09 -1.89438e-09 -1.43893e-06 0.0005 1.46608e-07 
138 1 0.0137764 0.0169235 0.0176266 0.0172126 -0.0603231 -0.0523589 0 0 -1.43822e-06 0.0005 1.46608e-07 
139 1 0.0150957 0.0231168 0.0155986 0.00022165 0.000187046 -6.20544e-05 1.91162e-07 3.68201e-07 -1.43544e-07 0.0005 1.46608e-07 
141 1 0.0256086 0.0208417 0.0165525 0.00112819 0.00191849 0.00401413 1.09138e-07 2.66027e-08 -1.61275e-06 0.0005 1.46608e-07 
142 1 0.0286424 0.019222 0.00715997 0.000944774 -0.0179205 -0.000753922 -4.72667e-09 -5.34342e-09 1.533e-08 0.0005 1.46608e-07 
143 1 0.0226677 0.0154446 0.0155119 0.0411973 -0.0324923 -0.0363953 0 0 -1.43822e-06 0.0005 1.46608e-07 
144 1 0.00874861 0.0104636 0.0437278 -0.147792 -0.107145 -0.252518 0 0 -1.43822e-06 0.0005 1.46608e-07 
145 1 0.0192591 0.0231877 0.01309 -0.0011481 0.00157383 -0.00322987 1.58006e-08 -6.21712e-07 -3.51626e-06 0.0005 1.46608e-07 
146 1 0.0159473 0.0224413 0.0166087 0.00250781 0.0020789 -0.00179567 9.87126e-07 2.01159e-06 4.12388e-07 0.0005 1.46608e-07 
147 1 0.0215057 0.0156347 0.0143485 0.00527933 -0.000883106 0.000636233 -1.78148e-08 -3.89985e-07 -1.1256e-07 0.0005 1.46608e-07 
148 1 0.017787 0.0194531 0.024801 -0.129164 -0.169211 0.362682 0 0 -1.43822e-06 0.0005 1.46608e-07 
149 1 0.0188981 0.0234167 0.0112618 0.000678943 0.000773728 -0.00439049 -2.62115e-07 4.50675e-07 -2.07197e-07 0.0005 1.46608e-07 
150 1 0.0209021 0.0221159 0.015115 -7.59821e-05 0.0173639 -0.0202937 -1.71271e-06 -1.07129e-06 -2.51031e-05 0.0005 1.46608e-07 
151 1 0.0163746 0.0230882 0.0159755 0.003713 0.00285546 -0.000306203 1.04931e-06 9.76231e-07 7.25715e-07 0.0005 1.46608e-07 
152 1 0.0188511 0.0140065 0.0129596 0.000478364 0.00115899 -0.00159049 6.17411e-07 -9.14545e-07 8.92361e-07 0.0005 1.46608e-07 
153 1 0.0182817 0.0235815 0.0139266 0.000897903 0.00944005 -0.016184 2.38684e-07 -4.93701e-07 -7.48055e-07 0.0005 1.46608e-07 
154 1 0.0152453 0.0213984 0.0163682 0.00581152 0.00369405 -0.00154738 8.74424e-07 -6.17918e-07 -1.46597e-06 0.0005 1.46608e-07 
155 1 0.0144954 0.0222065 0.0177663 0.00294719 0.00321118 5.63327e-05 1.81306e-07 -3.56133e-07 -1.98894e-06 0.0005 1.46608e-07 
156 1 0.0218443 0.023219 0.0158744 -0.00342601 -0.00769422 -0.00420678 -4.17868e-07 -1.84141e-07 -3.42472e-07 0.0005 1.46608e-07 
157 1 0.0167634 0.0238993 0.0135716 0.00206469 0.00198505 0.000573504 -1.09662e-07 7.53679e-09 -8.6378e-09 0.0005 1.46608e-07 
158 1 0.0153453 0.0195962 0.0168199 0.00133158 0.00590678 -0.00170524 5.79173e-08 1.57901e-07 -2.10803e-06 0.0005 1.46608e-07 
159 1 0.00403064 0.00991176 0.0572169 -0.211282 -0.257522 0.168666 0 0 -1.43822e-06 0.0005 1.46608e-07 
160 1 0.0250405 0.0186576 0.016772 -0.00434259 0.0142903 0.000787536 1.86816e-07 3.76961e-07 3.59503e-08 0.0005 1.46608e-07 
161 1 0.0199912 0.0225056 0.0144409 0.00926261 -0.0211002 -0.0125528 0 0 -1.43822e-06 0.0005 1.46608e-07 
163 1 0.0153284 0.0204126 0.016223 0.00404263 0.00244646 0.000272911 6.77515e-07 2.26258e-06 1.52337e-06 0.0005 1.46608e-07 
164 1 0.0245108 0.0158403 0.0156844 0.000594723 0.00372245 -0.00219316 3.52595e-07 -1.42482e-06 4.6715e-06 0.0005 1.46608e-07 
165 1 0.015485 0.0229956 0.0173226 0.00242588 0.00337382 0.000951873 -1.66175e-07 -6.64948e-07 -6.0964e-07 0.0005 1.46608e-07 
166 1 0.0144353 0.0208645 0.0166101 0.00328481 0.00433129 0.000390554 1.39177e-06 -6.4478e-08 1.1047e-06 0.0005 1.46608e-07 
167 1 0.0161892 0.0161765 0.015193 0.00103726 0.0271308 -0.00368301 0 0 -1.43822e-06 0.0005 1.46608e-07 
168 1 0.0238456 0.022795 0.0154321 0.00064313 0.00503213 0.0059374 1.14661e-06 -1.19135e-06 4.70164e-07 0.0005 1.46608e-07 
170 1 0.0201205 0.016969 0.0154323 0.00555926 -0.00221562 0.000345756 -2.47392e-08 9.3155e-08 6.55712e-08 0.0005 1.46608e-07 
171 1 0.0140785 0.0199312 0.0166496 0.00123302 0.00404568 -0.000631706 -1.29618e-06 2.16249e-06 -2.30723e-07 0.0005 1.46608e-07 
173 1 0.0221035 0.0171066 0.00762295 0.000526454 -0.0191089 0.00804251 -8.16593e-09 5.7428e-08 -2.92983e-08 0.0005 1.46608e-07 
174 1 0.0190048 0.0165236 0.0161402 0.00335614 -0.00371725 -0.00154573 -8.11342e-08 1.17104e-08 -1.96713e-07 0.0005 1.46608e-07 
175 1 0.0199321 0.023477 0.0117796 0.00244579 -0.00150909 -0.00436879 -3.68222e-05 -1.20309e-05 -4.68547e-05 0.0005 1.46608e-07 
177 1 0.016227 0.0212488 0.0162503 0.00195707 0.00151208 -0.00275472 -1.08841e-06 9.23936e-09 -1.20653e-06 0.0005 1.46608e-07 
179 1 0.0204743 0.0190355 0.0159447 -1.03727e-12 0.0205187 -2.04674e-05 -3.96359e-14 -9.26599e-11 -1.36556e-08 0.0005 1.46608e-07 
181 1 0.0227489 0.0146867 0.0143025 0.00269851 0.00419605 0.000853448 1.48207e-06 -4.89718e-07 2.35293e-06 0.0005 1.46608e-07 
183 1 0.0144322 0.0189974 0.0165967 0.00043749 0.00275248 -0.000556596 -6.08251e-06 3.13711e-06 -9.53067e-07 0.0005 1.46608e-07 
184 1 0.0162118 0.0153033 0.0166452 0.0187558 0.0503268 -0.0527059 0 0 -1.43822e-06 0.0005 1.46608e-07 
185 1 0.0214171 0.0150337 0.00992071 0.000678665 -0.00651492 0.0181562 -5.00822e-09 4.35033e-09 1.86353e-08 0.0005 1.46608e-07 
186 1 0.0218042 0.0139447 0.0145757 0.000956767 -0.000236394 0.000870685 -2.31474e-06 -7.14324e-07 3.86157e-07 0.0005 1.46608e-07 
187 1 0.0159747 0.0171538 0.015517 0.0017389 0.0139917 0.00733584 0 0 -1.43822e-06 0.0005 1.46608e-07 
189 1 0.0205359 0.0154742 0.014161 0.00244103 0.00756117 0.0085671 -1.12133e-07 -1.13692e-07 -1.86358e-07 0.0005 1.46608e-07 
190 1 0.0339257 0.0369309 0.0335031 0.099061 0.150335 -0.566596 0 0 -1.43822e-06 0.0005 1.46608e-07 
191 1 0.0211035 0.0147257 0.0145038 0.000902837 0.00197129 -0.00169403 4.32904e-07 -1.60994e-07 -1.3614e-06 0.0005 1.46608e-07 
192 1 0.0228181 0.0201523 0.00742327 0.000119583 -0.0199965 -0.00761992 -8.37333e-09 -5.7335e-08 -1.455e-08 0.0005 1.46608e-07 
193 1 0.018948 0.0144704 0.0153355 -0.000709136 0.00108941 -0.00154348 0 0 -1.43822e-06 0.0005 1.46608e-07 
194 1 0.0233033 0.021075 0.00789178 0.000969115 -0.0101935 -0.00781845 -7.54623e-09 8.15003e-08 3.36201e-08 0.0005 1.46608e-07 
197 1 0.0199461 0.0149648 0.0148593 0.00687422 -0.0262461 -0.0294812 -2.93962e-08 -2.40858e-07 -7.18435e-07 0.0005 1.46608e-07 
199 1 0.0144364 0.0161788 0.0160911 0.00949894 -0.00288318 -0.00291383 0 0 -1.43822e-06 0.0005 1.46608e-07 
200 1 0.0131166 0.0214684 0.0164655 -0.000418214 9.85563e-05 0.00109078 -2.1325e-07 -2.28486e-06 -1.9598e-06 0.0005 1.46608e-07 
201 1 0.0196191 0.0141412 0.0135856 0.00222978 0.00234513 -0.00241238 1.44535e-06 6.16383e-07 2.83128e-07 0.0005 1.46608e-07 
203 1 0.0330202 0.0154563 0.0394638 -0.091115 -0.00911795 -0.193085 0 0 -1.43822e-06 0.0005 1.46608e-07 
205 1 0.0158214 0.0133057 0.0198845 0.114258 0.104607 -0.252106 0 0 -1.43822e-06 0.0005 1.46608e-07 
206 1 0.0309647 0.017699 0.0491302 0.0992799 -0.0611402 -0.19237 0 0 -1.43822e-06 0.0005 1.46608e-07 
208 1 0.0210966 0.0212085 0.0154775 -0.000362493 0.0211652 -0.0134664 -2.96719e-06 7.58139e-06 -4.88078e-06 0.0005 1.46608e-07 
211 1 0.0182173 0.0226343 0.0154234 0.020206 -0.00458111 -0.0428134 0 0 -1.43822e-06 0.0005 1.46608e-07 
214 1 0.0202826 0.0141795 0.0143327 0.00511591 -0.00451097 -0.00872374 0 0 -1.43822e-06 0.0005 1.46608e-07 
215 1 0.0258975 0.0192721 0.0167554 0.0381833 -0.0539671 0.0496618 -0.000194533 0.000525266 0.000116409 0.0005 1.46608e-07 
217 1 0.0177932 0.0232147 0.0147198 -0.00156117 0.0157729 -0.0205496 2.77885e-07 4.43665e-07 -5.62119e-07 0.0005 1.46608e-07 
218 1 0.0172081 0.0227503 0.0164131 -0.00100497 0.00779886 0.0107597 0 0 -1.43822e-06 0.0005 1.46608e-07 
220 1 0.014773 0.0105552 0.0270681 0.0628728 0.0666206 -0.253198 0 0 -1.43822e-06 0.0005 1.46608e-07 
221 1 0.0175108 0.0224788 0.00915352 1.36637e-05 -0.0122218 -0.0183346 -1.11682e-09 -1.04823e-08 3.40769e-09 0.0005 1.46608e-07 
223 1 0.0160833 0.0149096 0.0131104 0.00132394 0.000922699 0.00465411 0 0 -1.43822e-06 0.0005 1.46608e-07 
224 1 0.0159865 0.0235967 0.0141283 0.000902036 0.000138895 -0.00158539 -1.29063e-06 -1.62078e-06 1.88797e-06 0.0005 1.46608e-07 
225 1 0.0183451 0.0232228 0.0104941 0.0029445 -1.4477e-05 -0.00630584 -3.09426e-07 1.56672e-07 5.98395e-07 0.0005 1.46608e-07 
226 1 0.0269866 0.014782 0.0119239 0.000424732 0.00276269 0.0190844 1.84149e-08 -5.67467e-07 -1.24808e-06 0.0005 1.46608e-07 
227 1 0.0136617 0.0222593 0.0161885 0.000377959 0.000506653 -0.000606189 1.66432e-06 -1.48538e-06 -3.98942e-07 0.0005 1.46608e-07 
228 1 0.0137255 0.0204271 0.0174451 0.00950095 0.00941571 -0.00117203 1.28794e-06 -7.99601e-07 4.722e-07 0.0005 1.46608e-07 
229 1 0.0200161 0.0217314 0.0153202 -0.000605157 0.0183451 -0.0213861 -7.75672e-06 7.76229e-06 -3.3471e-05 0.0005 1.46608e-07 
230 1 0.0121223 0.0175545 0.0214373 0.126199 0.0492218 -0.273764 0 0 -1.43822e-06 0.0005 1.46608e-07 
231 1 0.0249701 0.0215924 0.015676 -0.00156925 -0.00731476 0.00547046 5.75241e-06 -9.19108e-06 2.47108e-05 0.0005 1.46608e-07 
232 1 0.0247312 0.0266259 0.0276603 -0.0266189 -0.0287324 -0.149066 0 0 -1.43822e-06 0.0005 1.46608e-07 
234 1 0.0171523 0.0147529 0.0145106 0.00502669 0.00177218 -0.000169149 6.74147e-07 1.97942e-07 6.27883e-07 0.0005 1.46608e-07 
235 1 0.0185994 0.0149701 0.0162259 0.00533827 0.00218392 0.00571512 -8.65455e-09 -2.84169e-08 -1.47496e-06 0.0005 1.46608e-07 
237 1 0.0243047 0.0228677 0.00940886 0.00101545 -0.00082783 -0.00506279 6.33672e-09 5.32535e-08 5.10532e-08 0.0005 1.46608e-07 
239 1 0.0237242 0.021728 0.0160458 0.00216435 -0.00127437 -0.00215266 -1.03243e-06 -1.04001e-07 3.84914e-07 0.0005 1.46608e-07 
240 1 0.0157671 0.0181036 0.0158387 0.0020855 0.0168131 0.00328508 -1.07856e-08 -5.68775e-07 -1.94025e-06 0.0005 1.46608e-07 
241 1 0.0136713 0.0180117 0.0167392 -0.00414896 0.0240994 -0.000869569 0 0 -1.43822e-06 0.0005 1.46608e-07 
242 1 0.0145562 0.0175797 0.0165261 -0.0130946 0.00181446 -0.0136514 0 0 -1.43822e-06 0.0005 1.46608e-07 
246 1 0.0131543 0.0204824 0.0166262 0.00177288 -0.000155767 0.00363416 -1.53553e-06 -1.457e-06 1.75705e-06 0.0005 1.46608e-07 
247 1 0.0259457 0.0203756 0.0156133 0.0112063 -0.0101722 0.00593408 -7.53767e-05 6.1839e-06 5.02384e-05 0.0005 1.46608e-07 
248 1 0.0127712 0.0175342 0.0165436 -0.0095017 0.0145352 0.00436608 4.77171e-07 2.53821e-07 8.50875e-08 0.0005 1.46608e-07 
249 1 0.0209849 0.01465 0.0122693 0.00442184 0.0010962 0.00252551 5.86392e-07 2.53159e-06 -9.57065e-07 0.0005 1.46608e-07 
250 1 0.0218676 0.0150368 0.0150693 0.0198711 -0.0152682 -0.0164321 0 0 -1.43822e-06 0.0005 1.46608e-07 
251 1 0.0132508 0.0210077 0.0155014 -0.00131492 -0.00287107 -0.000208711 6.12512e-07 -1.21642e-06 -7.11516e-07 0.0005 1.46608e-07 
252 1 0.0180518 0.019634 0.0174679 0.0880133 0.122034 -0.00932272 0 0 -1.43822e-06 0.0005 1.46608e-07 
253 1 0.0141292 0.022607 0.0153765 -0.000453991 0.000821789 -0.000315343 1.13464e-06 8.74158e-07 -7.52494e-07 0.0005 1.46608e-07 
254 1 0.018189 0.0234482 0.0118647 0.00199831 0.00241544 -0.0103009 2.43736e-06 5.36356e-07 9.09685e-06 0.0005 1.46608e-07 
255 1 0.0134693 0.0199274 0.0158566 0.00323512 0.00897967 -0.00206095 -5.6211e-07 -2.36482e-07 8.22959e-07 0.0005 1.46608e-07 
256 1 0.0158519 0.0230145 0.0149367 -0.00196544 0.00159493 -0.0051557 0 0 -1.43822e-06 0.0005 1.46608e-07 
257 1 0.0183649 0.0232526 0.0128171 0.00109581 0.00336652 -0.0119024 8.43981e-07 -3.81991e-07 5.19099e-06 0.0005 1.46608e-07 
258 1 0.0211432 0.0199444 0.0158548 -5.36348e-11 0.020082 -0.00423427 -4.4448e-16 -2.91483e-09 -1.3346e-08 0.0005 1.46608e-07 
259 1 0.0129909 0.0236031 0.0226856 0.315431 0.0271488 -0.451723 0 0 -1.43822e-06 0.0005 1.46608e-07 
260 1 0.022269 0.0160749 0.0148218 0.00469209 0.00190852 0.00117624 -9.3283e-09 -4.24091e-07 4.945e-07 0.0005 1.46608e-07 
261 1 0.0180142 0.0214455 0.0167511 -0.00832024 -0.00136306 0.0125178 0 0 -1.43822e-06 0.0005 1.46608e-07 
262 1 0.0148102 0.0183864 0.0159014 0.000278945 0.0088424 0.00147136 -2.42132e-06 -3.68758e-07 8.18627e-07 0.0005 1.46608e-07 
263 1 0.0293468 0.015368 0.0341934 0.00879682 0.0455059 -0.102669 0 0 -1.43822e-06 0.0005 1.46608e-07 
264 1 0.0133152 0.0164008 0.0160741 -0.0015135 0.00482843 0.00426877 1.79071e-09 -2.86071e-10 1.37414e-08 0.0005 1.46608e-07 
265 1 0.0163614 0.0241006 0.0176612 0.0016414 0.000627772 0.00101563 7.20417e-07 3.24796e-07 -8.40536e-07 0.0005 1.46608e-07 
266 1 0.0150815 0.0211893 0.015403 0.00530522 0.00440788 -0.000876095 4.48126e-06 -1.21627e-05 8.31898e-06 0.0005 1.46608e-07 
267 1 0.0142092 0.0166274 0.0152265 0.00209195 0.0117326 0.00749581 -1.11278e-07 -1.43836e-07 -1.39249e-07 0.0005 1.46608e-07 
268 1 0.00945491 0.0180173 0.0275361 0.108996 0.025638 -0.258073 3.86903e-07 6.95651e-09 -9.04464e-07 0.0005 1.46608e-07 
269 1 0.0132322 0.0227631 0.0208044 0.124209 -0.0390263 -0.317142 0 0 -1.43822e-06 0.0005 1.46608e-07 
270 1 0.0228549 0.016452 0.0165196 -0.0558208 -0.0350459 -0.0207553 0 0 -1.43822e-06 0.0005 1.46608e-07 
271 1 0.0220928 0.0236929 0.0150297 0.0012961 -0.000520695 0.000898551 8.41941e-08 -1.28706e-07 7.45523e-09 0.0005 1.46608e-07 
272 1 0.0245894 0.0222063 0.0151176 -0.00209157 0.00449717 -0.00173921 -2.1489e-06 -9.2866e-06 -2.79203e-07 0.0005 1.46608e-07 
273 1 0.0189723 0.0221222 0.0147205 -0.000806299 0.0276517 -0.00448616 0 0 -1.43822e-06 0.0005 1.46608e-07 
274 1 0.0149244 0.0158669 0.0152243 -0.000778054 0.00583071 0.00119784 -2.39577e-07 -2.40616e-07 -9.60179e-07 0.0005 1.46608e-07 
275 1 0.0140988 0.0224096 0.01438 -0.000145637 0.000274806 0.000694191 1.37923e-07 -2.20891e-07 2.25426e-07 0.0005 1.46608e-07 
276 1 0.0140471 0.0214155 0.0173491 0.00328886 0.00178665 -0.000849843 0 0 -1.43822e-06 0.0005 1.46608e-07 
277 1 0.0188817 0.0227812 0.0139224 -0.00936753 0.0102465 -0.0125562 1.62816e-06 -2.0659e-06 -3.3276e-06 0.0005 1.46608e-07 
278 1 0.0175184 0.0153968 0.0152913 0.017384 -0.0200601 -0.0621938 0 0 -1.43822e-06 0.0005 1.46608e-07 
279 1 0.0178785 0.0140768 0.0131807 0.000880737 -0.00139637 0.00430103 -4.41928e-08 1.1028e-07 -5.3396e-07 0.0005 1.46608e-07 
280 1 0.0150269 0.0222038 0.016919 0.00360944 0.00352274 -0.000327663 -6.07502e-07 -1.12435e-06 -1.97392e-07 0.0005 1.46608e-07 
281 1 0.0234234 0.0221407 0.00870558 0.00130154 -0.0112491 -0.00971251 -4.35784e-09 -1.5418e-08 -1.38104e-08 0.0005 1.46608e-07 
282 1 0.016369 0.022111 0.0157643 0.00455988 0.00271445 -0.00160407 1.09799e-07 1.24335e-06 -6.27226e-07 0.0005 1.46608e-07 
283 1 0.0190528 0.0234446 0.012186 0.00250219 0.00139139 -0.00541095 2.26962e-06 -1.2186e-06 -1.83773e-06 0.0005 1.46608e-07 
284 1 0.00937694 0.00505359 0.0435188 -9.68799e-317 -9.69932e-317 9.23294e-13 0 0 0 0.0005 1.46608e-07 
285 1 0.0217194 0.0148371 0.0128933 0.00314889 0.00109223 0.00423716 -3.33174e-06 2.18599e-06 2.6439e-06 0.0005 1.46608e-07 
286 1 0.0167024 0.019663 0.0167261 1.92129e-05 0.0246132 -0.00275425 -3.11355e-09 3.65371e-08 -2.62118e-08 0.0005 1.46608e-07 
288 1 0.0179403 0.0233276 0.0110039 0.0029697 -0.00158213 -0.0105493 -3.7536e-08 -5.50123e-09 1.11886e-06 0.0005 1.46608e-07 
289 1 0.013478 0.0211298 0.0181202 0.00434519 0.0129372 0.00295903 0 0 -1.43822e-06 0.0005 1.46608e-07 
291 1 0.0213049 0.0163474 0.0150265 0.00312893 0.000337212 0.000932455 -9.83168e-08 -1.28052e-07 -7.29289e-08 0.0005 1.46608e-07 
293 1 0.0181005 0.0144142 0.0146232 -0.0152857 -0.0288273 -0.0600021 0 0 -1.43822e-06 0.0005 1.46608e-07 
294 1 0.0139146 0.0178257 0.0157786 0.000511683 0.0199866 0.0058596 -1.35764e-09 3.57025e-10 -1.53185e-08 0.0005 1.46608e-07 
295 1 0.0205831 0.0139791 0.0133752 0.00273731 0.00207636 -0.00250258 -5.46324e-08 -1.29249e-07 -1.43277e-06 0.0005 1.46608e-07 
296 1 0.0205493 0.0229197 0.0137204 0.00250451 0.00261928 -0.00339146 -5.16646e-07 9.80385e-07 -2.44325e-06 0.0005 1.46608e-07 
297 1 0.0187501 0.0218791 0.0161087 -0.0278743 -0.00289129 -0.00890386 0 0 -1.43822e-06 0.0005 1.46608e-07 
298 1 0.0147517 0.0230306 0.0147193 -9.75258e-05 4.13993e-05 0.000154457 -2.59226e-07 2.29517e-08 2.13696e-07 0.0005 1.46608e-07 
299 1 0.024947 0.0190645 0.00586966 2.56686e-15 8.03152e-16 -4.25278e-14 -1.18717e-19 4.63607e-19 -2.75286e-21 0.0005 1.46608e-07 
300 1 0.0148799 0.021988 0.0148381 0.0035043 0.00414758 0.0010019 3.18924e-06 -4.40288e-06 6.19689e-06 0.0005 1.46608e-07 
