ITEM: TIMESTEP
25800000
ITEM: NUMBER OF ATOMS
107
ITEM: BOX BOUNDS ff ff ff
-0.02 0.43
-0.02 0.06
-0.02 0.07
ITEM: ATOMS id type x y z vx vy vz fx fy fz radius mass 
1 1 0.0140155 0.0222142 0.0146374 0.00316214 0.00537777 -0.00671643 -7.48196e-10 7.92455e-09 -1.73465e-09 0.0005 1.46608e-07 
2 1 0.0242546 0.020213 0.00583854 -9.0858e-15 -1.46378e-15 1.48131e-13 0 7.7755e-23 0 0.0005 1.46608e-07 
4 1 0.0200538 0.0148162 0.0128516 0.00378982 0.00207437 0.00572836 -9.10788e-09 4.52757e-09 3.90631e-08 0.0005 1.46608e-07 
5 1 0.0552529 0.0189972 0.0058882 -1.32853e-17 -1.80757e-17 -2.5714e-16 -1.45584e-22 -1.58819e-22 0 0.0005 1.46608e-07 
15 1 0.00938048 0.0183393 0.00587271 3.64503e-15 5.46141e-16 -3.69009e-14 1.42937e-21 -1.10214e-20 0 0.0005 1.46608e-07 
16 1 0.0260391 0.0196534 0.00594246 2.09857e-14 3.38093e-15 -3.42138e-13 0 -1.57164e-22 0 0.0005 1.46608e-07 
17 1 0.0447621 0.0155831 0.00905883 0.00107978 -0.00873322 0.0154837 -2.03127e-09 4.67965e-09 1.11772e-08 0.0005 1.46608e-07 
18 1 0.0366849 0.0218066 0.0435188 -9.6879e-317 9.73506e-317 2.68131e-13 0 0 0 0.0005 1.46608e-07 
20 1 0.0498973 0.0150971 0.0130068 -0.000129868 0.00631308 0.0221567 -1.73199e-09 1.08161e-08 -1.55237e-09 0.0005 1.46608e-07 
24 1 0.0432993 0.0166681 0.0150317 -0.000107968 0.0168711 0.0109463 -1.73387e-09 1.36812e-08 -3.51408e-09 0.0005 1.46608e-07 
25 1 0.0339249 0.0173116 0.00624552 -1.15429e-15 -9.55254e-15 -2.80097e-14 -1.93759e-20 -1.23349e-20 4.23516e-21 0.0005 1.46608e-07 
27 1 0.000591717 0.0149731 0.0435188 9.71467e-317 9.75789e-317 -8.23806e-13 0 0 0 0.0005 1.46608e-07 
28 1 0.0474082 0.0232905 0.0119954 0.000123025 0.00407096 -0.0220862 1.89046e-10 -1.15599e-08 -4.79377e-09 0.0005 1.46608e-07 
32 1 0.0364748 0.0208476 0.00623738 4.37208e-15 -1.48264e-14 6.83465e-14 -7.17331e-21 -1.58819e-22 4.23516e-22 0.0005 1.46608e-07 
33 1 0.0327149 0.0152642 0.009452 0.00104442 -0.00778619 0.0155364 -2.15182e-10 -1.51586e-08 2.12621e-08 0.0005 1.46608e-07 
37 1 0.049528 0.0194806 0.00601095 5.85719e-15 -1.24423e-14 -1.29437e-13 -2.48525e-19 -9.37295e-20 -2.11758e-21 0.0005 1.46608e-07 
41 1 0.0287145 0.0225654 0.00894875 0.000435754 -0.0119201 -0.0155988 -3.84813e-09 -1.6397e-08 -5.75581e-09 0.0005 1.46608e-07 
44 1 0.0380637 0.0148457 0.0123363 6.17345e-05 0.00266264 0.0229114 3.92199e-11 1.20667e-08 -6.15127e-10 0.0005 1.46608e-07 
47 1 0.0240055 0.0222492 0.0146443 0.000946799 0.007021 -0.00571948 -2.74515e-07 1.25216e-06 5.85399e-07 0.0005 1.46608e-07 
49 1 0.003617 0.0285782 0.0435188 -9.68849e-317 -9.75601e-317 2.88878e-12 0 0 0 0.0005 1.46608e-07 
52 1 0.0860181 0.0183082 0.00577269 -1.2207e-15 3.67083e-14 1.26768e-13 1.99781e-20 3.17637e-22 2.11758e-22 0.0005 1.46608e-07 
57 1 0.0177449 0.0174882 0.00600758 2.63626e-15 1.02258e-14 2.12805e-14 -2.09641e-20 8.47033e-22 1.90582e-21 0.0005 1.46608e-07 
59 1 0.0481663 0.0217618 0.0148707 0.000671826 0.0162845 -0.0125121 -1.36837e-06 4.12744e-06 -3.43412e-06 0.0005 1.46608e-07 
63 1 0.0263472 0.014747 0.0113287 4.82573e-05 -0.0018203 0.0227547 -2.46833e-10 1.25839e-08 3.60141e-09 0.0005 1.46608e-07 
65 1 0.112778 0.0179068 0.0059233 7.94948e-16 3.44185e-15 1.42028e-14 2.55566e-20 -7.51742e-21 4.23516e-22 0.0005 1.46608e-07 
67 1 0.0476594 0.0229128 0.0133045 0.000351785 0.00799748 -0.0186047 -1.86291e-09 -7.01465e-09 -1.12521e-08 0.0005 1.46608e-07 
68 1 0.0452523 0.0173614 0.00620617 -3.12682e-15 -1.74652e-14 -1.20236e-13 -6.4851e-21 1.05879e-22 0 0.0005 1.46608e-07 
73 1 0.0349285 0.0181778 0.00592251 6.36395e-16 6.72304e-15 2.00023e-14 -2.0845e-21 1.05879e-22 -2.11758e-22 0.0005 1.46608e-07 
74 1 0.039444 0.0176651 0.00740924 0.000187348 -0.0199793 0.00669999 -1.36409e-09 -2.9814e-09 1.18678e-08 0.0005 1.46608e-07 
76 1 0.0318691 0.0151305 0.0131748 0.000846433 0.00723268 0.017553 9.42287e-09 1.33028e-08 -1.9508e-08 0.0005 1.46608e-07 
79 1 0.0551402 0.017971 0.00596606 -2.82227e-15 -3.83405e-15 -5.46135e-14 -2.64698e-23 3.97047e-23 2.11758e-22 0.0005 1.46608e-07 
84 1 0.0409927 0.0232017 0.0103145 0.000291443 -0.00582627 -0.0181275 -1.95661e-07 2.4661e-07 5.93421e-07 0.0005 1.46608e-07 
87 1 0.0465471 0.0220879 0.00840442 0.00249641 -0.00903731 -0.0102352 -1.25935e-06 8.00709e-08 -6.08824e-07 0.0005 1.46608e-07 
88 1 0.0457604 0.0190275 0.00722504 0.00153997 -0.016174 0.00146523 -1.14901e-08 -2.98903e-08 7.35403e-09 0.0005 1.46608e-07 
89 1 0.0486171 0.0196769 0.0158048 0.00106621 0.0152031 -0.00163081 4.92702e-09 -1.55319e-08 -1.15153e-08 0.0005 1.46608e-07 
90 1 0.0392282 0.0165948 0.00796555 0.0011419 -0.0134245 0.00918607 -8.34451e-09 -1.94808e-08 1.96751e-08 0.0005 1.46608e-07 
92 1 0.0454529 0.0177857 0.00747734 0.000133725 -0.0203347 0.00633816 -1.64953e-09 -1.35077e-09 1.11475e-08 0.0005 1.46608e-07 
97 1 0.027466 0.0177799 0.00737461 0.000132064 -0.0207638 0.00591068 -4.08038e-10 -2.2826e-09 1.2206e-08 0.0005 1.46608e-07 
103 1 0.0437812 0.0152979 0.013555 7.58046e-05 0.0100193 0.019271 2.22177e-10 1.25357e-08 -2.07396e-10 0.0005 1.46608e-07 
108 1 0.0214483 0.0168437 0.00645098 -2.38692e-14 5.0881e-14 1.84336e-13 -1.60936e-20 1.49819e-20 -8.89385e-21 0.0005 1.46608e-07 
109 1 0.0334152 0.0176659 0.0074322 -9.8811e-05 -0.021101 0.00618163 1.51036e-08 2.25121e-08 -1.48164e-08 0.0005 1.46608e-07 
112 1 0.042031 0.0221011 0.0144543 0.000114228 0.0158077 -0.0157191 -1.83558e-09 -4.60738e-09 -1.14126e-08 0.0005 1.46608e-07 
121 1 0.0586827 0.0172628 0.00598816 1.03724e-14 -2.15388e-14 -2.65e-13 4.47736e-20 3.50725e-21 1.48231e-21 0.0005 1.46608e-07 
122 1 0.0792478 0.0194315 0.00576454 1.17339e-14 4.01966e-14 1.70238e-13 2.85635e-19 2.30816e-20 -2.60463e-20 0.0005 1.46608e-07 
124 1 0.0250262 0.0182228 0.0158783 0.000266695 0.0209204 0.00469811 0 0 -1.43822e-06 0.0005 1.46608e-07 
125 1 0.0502993 0.0148628 0.0113971 0.00149545 -0.000230519 0.0188861 -4.31188e-08 2.1064e-08 7.21264e-08 0.0005 1.46608e-07 
128 1 0.0303903 0.00406748 0.0435188 -9.67556e-317 -9.75879e-317 -3.22607e-12 0 0 0 0.0005 1.46608e-07 
130 1 0.0364302 0.0203612 0.0155867 0.00109725 0.0147144 -0.00544147 -1.97281e-09 1.47741e-08 -2.09457e-08 0.0005 1.46608e-07 
131 1 0.0505515 0.0149561 0.0102109 0.00136091 -0.00467104 0.0135318 5.68828e-09 1.29754e-08 -6.48653e-08 0.0005 1.46608e-07 
133 1 0.0438472 0.0171169 0.00621343 5.62704e-16 -1.56657e-15 -8.50626e-15 1.80431e-19 7.82976e-20 -2.75286e-21 0.0005 1.46608e-07 
135 1 0.0463513 0.0214365 0.00798353 0.00168355 -0.0142278 -0.00797207 2.59636e-07 -2.24237e-07 1.35624e-07 0.0005 1.46608e-07 
137 1 0.0473953 0.0193073 0.0059321 4.73747e-15 -1.0179e-14 -1.05707e-13 -1.0535e-20 -5.82335e-21 0 0.0005 1.46608e-07 
139 1 0.0400429 0.0202635 0.00735598 0.000615341 -0.0199515 -0.00402159 -2.57421e-08 -1.08059e-07 -2.88613e-08 0.0005 1.46608e-07 
141 1 0.0367722 0.0191361 0.0157346 -0.000185446 0.022654 0.00182064 -4.16194e-10 -9.68942e-10 -9.39426e-09 0.0005 1.46608e-07 
142 1 0.0508515 0.0155728 0.00906276 0.000357497 -0.00949724 0.011565 3.44878e-09 9.4218e-09 1.61488e-09 0.0005 1.46608e-07 
143 1 0.044034 0.0148762 0.0124388 0.0006245 0.00435654 0.0204107 -5.52315e-09 -4.75474e-08 -6.46291e-08 0.0005 1.46608e-07 
147 1 0.0412305 0.0233861 0.0112304 0.00097411 -0.000646429 -0.0152005 -2.54251e-08 8.81035e-09 -1.28046e-08 0.0005 1.46608e-07 
149 1 0.0584376 0.0191695 0.00582359 8.15687e-15 -1.68344e-14 -2.07263e-13 -2.51397e-20 -5.84982e-21 -2.11758e-22 0.0005 1.46608e-07 
150 1 0.0203046 0.0139564 0.0132961 0.0035549 -4.29076e-05 0.00176706 -1.60129e-09 -3.86236e-09 6.43291e-09 0.0005 1.46608e-07 
157 1 0.0207256 0.0146295 0.0119567 -8.08059e-05 7.66155e-05 -0.000212724 1.00902e-08 -1.3455e-08 3.41613e-08 0.0005 1.46608e-07 
158 1 0.020084 0.0201843 0.0061153 5.4809e-15 -2.48019e-15 5.04936e-14 3.59989e-21 -1.1697e-19 -6.14099e-21 0.0005 1.46608e-07 
160 1 0.0479053 0.022427 0.0141986 0.0028377 0.00752743 -0.00916709 4.26815e-06 -4.38578e-06 4.59596e-06 0.0005 1.46608e-07 
161 1 0.0221348 0.00230077 0.0435188 9.74157e-317 -9.69799e-317 9.23294e-13 0 0 0 0.0005 1.46608e-07 
165 1 0.201805 0.0186174 0.00570934 -3.8561e-20 1.12962e-21 -1.30474e-21 0 0 0 0.0005 1.46608e-07 
166 1 0.042662 0.019528 0.0157696 0.000226532 0.020602 -0.00237185 -6.4925e-10 4.90153e-09 -1.22301e-08 0.0005 1.46608e-07 
167 1 0.0300707 0.0220129 0.0145965 0.00134922 0.0132112 -0.0131101 -2.18895e-08 1.77573e-08 8.22597e-09 0.0005 1.46608e-07 
173 1 0.0830234 0.0186618 0.00583976 1.1556e-14 3.23881e-14 -1.39054e-13 6.81994e-20 -2.92226e-20 -8.47033e-22 0.0005 1.46608e-07 
174 1 0.0290055 0.0232199 0.0103104 0.00037398 -0.00604767 -0.0196245 -3.33951e-09 -1.15674e-08 -8.84687e-09 0.0005 1.46608e-07 
179 1 0.067984 0.0193424 0.00575613 3.93598e-15 7.50561e-15 2.61625e-13 3.7951e-20 -6.14099e-21 -4.23516e-22 0.0005 1.46608e-07 
185 1 0.0452057 0.0166469 0.00800758 0.00105779 -0.0135518 0.00763222 2.39498e-08 4.56738e-08 -1.86236e-08 0.0005 1.46608e-07 
186 1 0.0435781 0.0158565 0.0144044 0.0013019 0.0123819 0.0118097 -1.12454e-08 2.0613e-09 9.43319e-09 0.0005 1.46608e-07 
187 1 0.0422621 0.0213423 0.0151458 0.00047374 0.0155507 -0.0108621 -2.76391e-09 6.25406e-09 -1.74394e-08 0.0005 1.46608e-07 
191 1 0.0295597 0.0231693 0.0127991 0.000290581 0.00684799 -0.0182085 2.18784e-08 1.65682e-08 -8.42181e-08 0.0005 1.46608e-07 
193 1 0.0253288 0.0204564 0.00590683 9.29105e-15 1.49751e-15 -1.51478e-13 0 -3.63959e-22 0 0.0005 1.46608e-07 
194 1 0.0417485 0.022814 0.0136525 -0.000244566 0.0133958 -0.018585 -5.1998e-10 -8.30124e-09 -9.9355e-09 0.0005 1.46608e-07 
197 1 0.0443576 0.0148701 0.0111225 0.000164399 -0.00355235 0.0226558 1.4573e-09 1.18012e-08 2.30412e-09 0.0005 1.46608e-07 
200 1 0.0310232 0.0178497 0.0156383 0.000230285 0.0200308 0.00572279 -8.55915e-11 9.5291e-09 -7.80335e-09 0.0005 1.46608e-07 
205 1 0.0383457 0.0197753 0.00590075 6.05194e-15 -2.89405e-14 1.43235e-13 2.59801e-20 8.51798e-20 1.63054e-20 0.0005 1.46608e-07 
215 1 0.026935 0.0188837 0.00598981 1.43031e-14 2.30446e-15 -2.33189e-13 -3.04402e-22 1.38966e-22 0 0.0005 1.46608e-07 
225 1 0.033027 0.0159439 0.00853047 0.000280443 -0.0144233 0.0151759 -9.76303e-10 2.86578e-09 1.18042e-08 0.0005 1.46608e-07 
226 1 0.0483979 0.0205661 0.0155171 0.00106209 0.0186268 -0.00652553 8.88504e-09 -4.50876e-09 -1.84909e-08 0.0005 1.46608e-07 
227 1 0.0373133 0.016692 0.0150852 0.00155527 0.0140284 0.00819774 -5.6538e-09 2.124e-08 5.61739e-10 0.0005 1.46608e-07 
229 1 0.0471519 0.0233671 0.0109905 0.00364018 -0.00267567 -0.0119145 -4.09209e-08 2.49163e-07 -2.02711e-07 0.0005 1.46608e-07 
232 1 0.0221996 0.00109062 0.0435188 9.58743e-317 9.68145e-317 4.97437e-14 0 0 0 0.0005 1.46608e-07 
237 1 0.0467052 0.0225051 0.00901409 0.00220085 -0.00954631 -0.013384 -6.96564e-08 -2.29021e-07 1.03352e-06 0.0005 1.46608e-07 
241 1 0.0377795 0.0152974 0.013585 0.000148919 0.0101602 0.0188584 -4.01709e-10 1.27265e-08 9.55191e-10 0.0005 1.46608e-07 
242 1 0.0360076 0.0220953 0.014469 7.4123e-05 0.0169019 -0.0155508 -1.70679e-10 -6.39226e-09 -1.0842e-08 0.0005 1.46608e-07 
247 1 0.0496549 0.0157262 0.0142365 0.00124425 0.0115811 0.0124022 -1.14081e-08 2.48434e-08 1.99599e-08 0.0005 1.46608e-07 
252 1 0.0561606 0.0173315 0.00595822 1.4032e-14 1.90622e-14 2.71525e-13 -2.91168e-22 -6.61744e-23 0 0.0005 1.46608e-07 
253 1 0.0895649 0.0187731 0.00575225 -1.29567e-14 1.91201e-14 2.53771e-13 -1.51632e-19 4.68647e-20 -1.14349e-20 0.0005 1.46608e-07 
256 1 0.0345459 0.0221073 0.00839055 0.000729143 -0.0142636 -0.0147142 -6.44971e-09 -1.95457e-08 -9.04373e-10 0.0005 1.46608e-07 
257 1 0.0338673 0.0195754 0.00742128 0.000671678 -0.0220332 0.0010481 2.54061e-08 -1.12203e-07 5.95388e-08 0.0005 1.46608e-07 
258 1 0.0450468 0.0160736 0.00834476 0.00179825 -0.00890617 0.00659209 1.5196e-08 4.67838e-08 -3.65952e-08 0.0005 1.46608e-07 
260 1 0.108836 0.0200055 0.00584234 7.53171e-16 -1.26241e-15 -6.97775e-15 0 0 0 0.0005 1.46608e-07 
268 1 0.0283858 0.0216256 0.00802557 0.00214515 -0.0115847 -0.00821967 3.17632e-09 -2.34125e-08 1.5703e-09 0.0005 1.46608e-07 
269 1 0.0389862 0.0159936 0.00855909 0.00105747 -0.0106462 0.0153153 1.54963e-08 -4.16343e-08 9.55327e-08 0.0005 1.46608e-07 
270 1 0.0348721 0.0229587 0.0098114 0.000357755 -0.00939996 -0.0173458 -1.67027e-08 -2.67321e-08 -2.98361e-08 0.0005 1.46608e-07 
271 1 0.0407568 0.022684 0.00917019 0.00048539 -0.0106808 -0.0171184 -1.09216e-08 -5.04191e-08 -6.51633e-08 0.0005 1.46608e-07 
274 1 0.0251945 0.0172916 0.0155549 0.000464942 0.0116234 0.00497623 4.86411e-06 0.000114618 6.71552e-05 0.0005 1.46608e-07 
275 1 0.0350721 0.0232922 0.0105953 0.000901961 -0.00268209 -0.016273 1.51392e-09 1.66494e-08 3.84566e-08 0.0005 1.46608e-07 
277 1 0.0307571 0.0192366 0.0158229 0.00200319 0.0147004 -0.000206531 -1.2462e-09 -1.29022e-08 -1.34601e-08 0.0005 1.46608e-07 
284 1 0.00937694 0.00505359 0.0435188 -9.68799e-317 -9.69932e-317 9.23294e-13 0 0 0 0.0005 1.46608e-07 
288 1 0.0457039 0.018685 0.00600217 -6.98191e-15 -3.90024e-14 -2.68502e-13 2.02891e-20 -5.87629e-21 4.23516e-22 0.0005 1.46608e-07 
291 1 0.0322541 0.0147785 0.0116448 0.000780167 0.000264631 0.0183238 3.16997e-10 1.00953e-08 1.02866e-08 0.0005 1.46608e-07 
294 1 0.0239797 0.0191467 0.00594569 -2.27373e-14 -4.66212e-14 -1.52821e-13 -5.39984e-21 -8.99973e-22 1.48231e-21 0.0005 1.46608e-07 
299 1 0.0254808 0.018723 0.00589902 -2.078e-14 -3.42648e-15 3.38791e-13 -1.93229e-21 2.57931e-20 4.23516e-22 0.0005 1.46608e-07 
300 1 0.0429751 0.0182647 0.0157281 0.000740141 0.0194185 0.00492589 -4.23764e-09 6.24212e-09 -1.2853e-08 0.0005 1.46608e-07 
