ITEM: TIMESTEP
15800000
ITEM: NUMBER OF ATOMS
127
ITEM: BOX BOUNDS ff ff ff
-0.02 0.43
-0.02 0.06
-0.02 0.07
ITEM: ATOMS id type x y z vx vy vz fx fy fz radius mass 
1 1 0.0191347 0.0153391 0.00932516 0.00117013 -0.00965979 0.016059 -1.32845e-08 -9.59954e-10 1.74095e-08 0.0005 1.46608e-07 
2 1 0.0211185 0.0235578 0.0142361 -0.000612413 0.00184977 0.000410888 7.22298e-08 2.57497e-08 -2.20708e-07 0.0005 1.46608e-07 
4 1 0.0170791 0.0236569 0.0135476 0.0254953 0.0086328 0.00489573 0 0 -1.43822e-06 0.0005 1.46608e-07 
5 1 0.0365403 0.0147947 0.0118586 0.000111967 0.00088382 0.0224339 -2.14464e-10 1.26038e-08 4.15663e-09 0.0005 1.46608e-07 
11 1 0.023559 0.0150478 0.0149542 -0.000371313 -0.0003596 -8.99451e-06 -4.23735e-08 -3.73584e-08 1.38517e-08 0.0005 1.46608e-07 
15 1 0.00938048 0.0183393 0.00587271 3.64696e-15 5.24216e-16 -3.6901e-14 2.06464e-21 1.61234e-20 4.23516e-22 0.0005 1.46608e-07 
16 1 0.0260148 0.0196703 0.00594114 1.7644e-14 2.84415e-15 -2.87664e-13 -8.33798e-22 5.23936e-21 0 0.0005 1.46608e-07 
17 1 0.0341584 0.0228069 0.0136686 0.000245376 0.00941548 -0.0140965 -5.51544e-09 -2.02392e-08 2.18998e-09 0.0005 1.46608e-07 
18 1 0.0366849 0.0218066 0.0435188 -9.6879e-317 9.73506e-317 2.68131e-13 0 0 0 0.0005 1.46608e-07 
19 1 0.0200947 0.0189273 0.00719485 0.000108917 -0.0217343 0.00126837 -1.5744e-08 -2.95351e-08 -9.72406e-09 0.0005 1.46608e-07 
20 1 0.040736 0.0209651 0.0153906 0.000829323 0.0153804 -0.0080819 -6.33826e-09 1.96856e-08 -3.06296e-08 0.0005 1.46608e-07 
24 1 0.0325012 0.0207075 0.00755786 0.000446581 -0.0174698 -0.00582078 1.40287e-08 8.11231e-08 2.61703e-08 0.0005 1.46608e-07 
25 1 0.0201305 0.0237415 0.0138902 0.0112332 0.00324821 -0.00857866 -1.4914e-07 5.55285e-07 -9.4839e-07 0.0005 1.46608e-07 
27 1 0.000591717 0.0149731 0.0435188 9.71467e-317 9.75789e-317 -8.23806e-13 0 0 0 0.0005 1.46608e-07 
28 1 0.0371439 0.0154662 0.00916362 0.00056843 -0.0102653 0.0159432 6.62494e-09 2.31363e-08 4.31608e-09 0.0005 1.46608e-07 
31 1 0.0234734 0.0178747 0.0157859 0.000500678 0.0199153 0.00553318 -1.49536e-10 4.48322e-09 -1.31915e-08 0.0005 1.46608e-07 
32 1 0.0174298 0.0234793 0.0117968 0.000761032 0.000316438 -0.000765231 -1.54725e-07 4.47841e-08 9.72984e-07 0.0005 1.46608e-07 
33 1 0.0219801 0.0232719 0.0127512 0.00028286 0.00271885 -0.00604932 2.35653e-08 -2.14346e-09 6.02906e-08 0.0005 1.46608e-07 
35 1 0.0246818 0.0170641 0.0154745 0.00132005 0.0143095 0.00735734 -3.45535e-09 -9.29038e-11 -7.46478e-09 0.0005 1.46608e-07 
37 1 0.0353526 0.0181831 0.0156055 7.43924e-05 0.0214847 0.00543588 2.22302e-10 6.47783e-09 -1.08707e-08 0.0005 1.46608e-07 
41 1 0.0168094 0.0233685 0.0125557 0.0039039 0.000916461 0.00099806 1.98982e-06 -1.50004e-06 6.58407e-06 0.0005 1.46608e-07 
43 1 0.0255903 0.019386 0.0167471 -2.59344e-07 0.0247115 -0.00138441 1.8281e-10 -6.87533e-10 -1.87664e-08 0.0005 1.46608e-07 
44 1 0.0282145 0.0225699 0.0139101 6.03425e-06 0.0131127 -0.0176548 -1.17437e-09 -6.55089e-09 -1.10817e-08 0.0005 1.46608e-07 
47 1 0.0180353 0.0157196 0.0144442 0.00445764 0.000557472 0.00168727 5.61815e-08 -2.06603e-07 -1.96665e-07 0.0005 1.46608e-07 
49 1 0.003617 0.0285782 0.0435188 -9.68849e-317 -9.75601e-317 2.88878e-12 0 0 0 0.0005 1.46608e-07 
52 1 0.0398962 0.0232687 0.0124212 0.000470297 0.0038404 -0.0195117 -2.63354e-09 -6.95496e-09 -1.41016e-08 0.0005 1.46608e-07 
57 1 0.0196051 0.0193773 0.00612808 -3.58839e-14 1.61236e-14 -3.28528e-13 -8.4968e-21 -2.12817e-20 -2.11758e-22 0.0005 1.46608e-07 
59 1 0.0385629 0.0209336 0.00761332 0.00119107 -0.0151133 -0.00738103 9.90625e-10 -7.30772e-09 4.94726e-09 0.0005 1.46608e-07 
62 1 0.0173409 0.0227717 0.0139327 0.00142967 0.00159096 -0.00340098 -6.67504e-07 -3.17874e-07 6.41485e-07 0.0005 1.46608e-07 
63 1 0.0184285 0.0147997 0.0128247 0.00429405 -0.00101613 0.00232353 1.83196e-08 -7.68756e-08 -4.43682e-07 0.0005 1.46608e-07 
65 1 0.0369571 0.0149678 0.0101931 0.000477096 -0.0051611 0.0190836 -5.64818e-09 9.34254e-09 1.00027e-08 0.0005 1.46608e-07 
67 1 0.0375417 0.0164231 0.00807175 0.00100104 -0.013935 0.0103839 2.01898e-09 6.81059e-09 7.66794e-09 0.0005 1.46608e-07 
68 1 0.0387538 0.0216841 0.00809173 0.00134543 -0.0160674 -0.0106459 -8.44437e-09 -9.56276e-09 1.37193e-09 0.0005 1.46608e-07 
71 1 0.0189269 0.0149322 0.0104212 0.000303682 -0.00786696 0.0208172 -1.99875e-08 9.93727e-09 -7.22308e-08 0.0005 1.46608e-07 
73 1 0.0193495 0.014939 0.0131884 0.0065109 -7.1495e-05 -0.00137099 3.71797e-07 6.24875e-07 -2.83224e-07 0.0005 1.46608e-07 
74 1 0.0293702 0.0182072 0.0157321 0.000644788 0.0201026 0.00455967 -9.12719e-10 8.55979e-09 -9.62469e-09 0.0005 1.46608e-07 
76 1 0.0185394 0.0152051 0.0137322 0.00527411 -0.000123386 0.00291714 0 0 -1.43822e-06 0.0005 1.46608e-07 
79 1 0.0350393 0.0193168 0.0158174 0.000917036 0.017973 0.000416288 2.83074e-09 -2.25875e-08 -1.61477e-08 0.0005 1.46608e-07 
84 1 0.0306236 0.0147692 0.0115601 0.00348825 0.000115546 0.00938451 3.33445e-08 -3.0149e-08 -3.35993e-08 0.0005 1.46608e-07 
87 1 0.0357084 0.0164686 0.0148496 0.00202406 0.00738737 0.00339938 9.94018e-06 9.69885e-06 -5.476e-06 0.0005 1.46608e-07 
88 1 0.035012 0.0222217 0.0144102 0.00270207 0.0155542 -0.0142766 1.3021e-09 -3.50785e-09 -8.40853e-09 0.0005 1.46608e-07 
89 1 0.0392562 0.022961 0.00968113 0.000206912 -0.00883574 -0.0189682 -7.67463e-10 -1.16846e-08 -1.36504e-09 0.0005 1.46608e-07 
90 1 0.0287842 0.0205719 0.01553 9.5879e-05 0.0204796 -0.007373 -4.26543e-10 3.61076e-09 -1.20789e-08 0.0005 1.46608e-07 
92 1 0.0348783 0.0201477 0.0156343 0.000798054 0.0176555 -0.0058199 -7.59352e-10 1.72011e-10 -1.19147e-08 0.0005 1.46608e-07 
97 1 0.0193513 0.0211378 0.007727 -0.00098715 -0.0173967 -0.00947337 4.26207e-09 -2.00889e-08 1.00275e-09 0.0005 1.46608e-07 
103 1 0.0328561 0.0219656 0.0082769 0.00189782 -0.0100407 -0.0105593 -2.39799e-07 3.32138e-07 -1.52492e-07 0.0005 1.46608e-07 
106 1 0.0185937 0.0241458 0.0130847 0.0085489 0.00850775 0.0178254 -4.07797e-08 -4.46577e-07 -1.03679e-06 0.0005 1.46608e-07 
108 1 0.0214483 0.0168437 0.00645098 -2.38181e-14 5.08821e-14 1.84343e-13 -2.95932e-20 7.71859e-20 -2.81638e-20 0.0005 1.46608e-07 
109 1 0.0241061 0.0155131 0.0139384 0.000516398 0.0116649 0.0158832 -3.57101e-09 1.63065e-08 4.95921e-09 0.0005 1.46608e-07 
110 1 0.0213284 0.0222334 0.00868243 -0.000448016 -0.0141917 -0.0139015 4.49586e-09 -1.15847e-08 -6.00102e-09 0.0005 1.46608e-07 
112 1 0.0314 0.016047 0.00848413 -0.119153 -0.0413826 -0.106986 0.179056 0.0816093 0.131683 0.0005 1.46608e-07 
116 1 0.0180404 0.0232619 0.0134129 0.00374841 -0.00320192 -0.00545923 2.40595e-07 -1.2093e-06 6.19991e-07 0.0005 1.46608e-07 
121 1 0.0551527 0.0181697 0.00595147 -1.30041e-14 -1.76691e-14 -2.51655e-13 -8.74826e-21 3.38813e-21 -2.11758e-22 0.0005 1.46608e-07 
122 1 0.0410099 0.0196032 0.0157195 7.63136e-05 0.0212308 -0.00174065 -4.2515e-09 1.28812e-08 -1.14683e-08 0.0005 1.46608e-07 
124 1 0.0161981 0.0237436 0.0141074 0.0120435 0.0116193 0.00880432 0 0 -1.43822e-06 0.0005 1.46608e-07 
125 1 0.040902 0.0203372 0.0155663 0.000620019 0.018625 -0.00356671 -1.57666e-08 2.98455e-08 -1.55987e-08 0.0005 1.46608e-07 
126 1 0.0212507 0.0240084 0.0133534 -5.72508e-05 0.000336182 -0.000207445 4.64519e-09 1.61974e-08 -6.79147e-09 0.0005 1.46608e-07 
128 1 0.0303903 0.00406748 0.0435188 -9.67556e-317 -9.75879e-317 -3.22607e-12 0 0 0 0.0005 1.46608e-07 
130 1 0.0270085 0.0223218 0.00869884 0.00112995 -0.0124064 -0.013211 -7.05892e-09 -2.01086e-08 -6.2816e-09 0.0005 1.46608e-07 
131 1 0.0378436 0.0153914 0.00925642 8.82377e-06 -0.00836485 0.013754 -1.10364e-08 -2.72547e-08 1.06162e-07 0.0005 1.46608e-07 
133 1 0.0211119 0.0226903 0.00925749 0.00109548 -0.00873364 -0.0135818 -1.1643e-08 -3.41496e-08 -4.88228e-08 0.0005 1.46608e-07 
135 1 0.0394836 0.0233585 0.010879 0.000954892 -0.00189363 -0.0166429 -5.19249e-10 -1.13165e-08 8.66997e-09 0.0005 1.46608e-07 
137 1 0.0307275 0.0188227 0.00574705 -1.48114e-14 1.45703e-16 -1.73752e-13 7.94093e-23 4.80385e-21 0 0.0005 1.46608e-07 
138 1 0.0203259 0.0240998 0.0129755 5.72043e-05 -0.000811487 -1.00076e-05 1.26338e-06 -6.77932e-08 6.23561e-07 0.0005 1.46608e-07 
139 1 0.0296799 0.0166795 0.0150926 0.000899237 0.0165623 0.011063 -8.85327e-09 2.2535e-08 2.26995e-09 0.0005 1.46608e-07 
141 1 0.0272062 0.0228715 0.00941435 0.000921229 -0.00798451 -0.0156613 -1.05479e-09 -1.43932e-08 2.81756e-09 0.0005 1.46608e-07 
142 1 0.0416007 0.0169958 0.0152532 0.000113563 0.0187376 0.0103306 -4.63694e-10 1.17552e-08 -6.39257e-09 0.0005 1.46608e-07 
143 1 0.0330441 0.0224797 0.00885748 0.00120347 -0.01072 -0.0143923 8.52851e-08 -1.02478e-08 2.15285e-07 0.0005 1.46608e-07 
147 1 0.0308823 0.0148474 0.0105469 3.5355e-05 -0.00470242 0.0209644 2.82319e-09 1.04339e-08 2.25773e-09 0.0005 1.46608e-07 
149 1 0.0570019 0.0175547 0.00590579 4.40909e-15 1.19066e-14 2.80766e-13 -6.1572e-20 2.15729e-21 1.05879e-21 0.0005 1.46608e-07 
150 1 0.0202258 0.01811 0.00727305 0.000251154 -0.0213012 0.00425859 -8.57999e-09 -1.0796e-08 9.1399e-09 0.0005 1.46608e-07 
151 1 0.0203335 0.0144952 0.0141083 -0.0679595 0.0128189 0.0352579 0 0 -1.43822e-06 0.0005 1.46608e-07 
157 1 0.0207181 0.0216581 0.00809352 0.000276111 -0.0170256 -0.0133413 -7.18337e-10 -1.20456e-08 5.23202e-09 0.0005 1.46608e-07 
158 1 0.0232705 0.0188509 0.0159381 0.000478673 0.0208393 0.000943644 -1.98188e-10 1.43245e-09 -1.4139e-08 0.0005 1.46608e-07 
160 1 0.0378864 0.0179602 0.00729603 0.000514838 -0.0189933 0.00304966 -3.18422e-08 1.59752e-07 -3.7198e-08 0.0005 1.46608e-07 
161 1 0.0221348 0.00230077 0.0435188 9.74157e-317 -9.69799e-317 9.23294e-13 0 0 0 0.0005 1.46608e-07 
165 1 0.0248846 0.0191207 0.015948 3.30826e-10 0.0205363 -0.000472842 2.10125e-15 -4.44623e-10 -1.36692e-08 0.0005 1.46608e-07 
166 1 0.0319237 0.0181472 0.00726448 0.000908549 -0.0190571 0.00417825 -4.1688e-09 -1.00711e-08 1.40048e-08 0.0005 1.46608e-07 
167 1 0.0160798 0.0231955 0.0131966 0.00405655 0.00631941 0.00133324 3.59528e-06 -3.77392e-08 1.31798e-05 0.0005 1.46608e-07 
170 1 0.0211503 0.0141694 0.0134242 -0.00166896 -0.000261776 -0.00350491 -3.43633e-06 7.85933e-06 1.18252e-05 0.0005 1.46608e-07 
171 1 0.0176617 0.0239025 0.0127452 0.00392246 -0.00213407 -0.00536368 1.35785e-07 1.68564e-07 1.15336e-06 0.0005 1.46608e-07 
173 1 0.0465026 0.0201103 0.00581477 1.06589e-14 -2.29137e-14 -2.37919e-13 -3.9837e-21 -1.21761e-21 0 0.0005 1.46608e-07 
174 1 0.0236966 0.0169089 0.0154033 0.000501762 0.0182317 0.0101359 -1.52268e-09 1.47754e-08 -1.28715e-08 0.0005 1.46608e-07 
179 1 0.067984 0.0193424 0.00575613 3.88937e-15 7.53422e-15 2.61625e-13 1.2362e-19 -4.5892e-20 -4.23516e-22 0.0005 1.46608e-07 
185 1 0.0347009 0.0210698 0.0151536 0.000154018 0.0192042 -0.0106973 3.96413e-07 4.35073e-06 -2.09051e-06 0.0005 1.46608e-07 
186 1 0.0326917 0.0214354 0.00786423 0.0012703 -0.0111566 -0.00832894 -3.59193e-07 7.09395e-07 -3.84237e-08 0.0005 1.46608e-07 
187 1 0.0316815 0.0169134 0.00774522 0.000109794 -0.0197565 0.0102603 -1.22724e-09 -6.58197e-12 1.22273e-08 0.0005 1.46608e-07 
191 1 0.0197307 0.017203 0.0076119 0.001165 -0.0183075 0.0091295 -1.89171e-08 -4.22161e-09 8.89669e-09 0.0005 1.46608e-07 
193 1 0.0245476 0.0198163 0.00585259 2.60859e-15 4.23057e-16 -4.2529e-14 1.45584e-22 -1.20851e-20 -2.11758e-22 0.0005 1.46608e-07 
194 1 0.0310953 0.0152265 0.00954344 0.000713101 -0.00843417 0.017619 -6.79615e-09 3.81699e-10 1.982e-08 0.0005 1.46608e-07 
197 1 0.0332626 0.0230087 0.00977691 0.000261811 -0.00851175 -0.0188159 -3.32454e-09 -1.19887e-08 -4.55714e-09 0.0005 1.46608e-07 
200 1 0.0233021 0.0233898 0.01532 -0.00464025 -0.00533736 -0.0155838 0 0 -1.43822e-06 0.0005 1.46608e-07 
205 1 0.0335298 0.0233275 0.011002 -0.000323696 -0.000156371 -0.0233949 5.07192e-09 1.7711e-08 1.37715e-08 0.0005 1.46608e-07 
206 1 0.0252836 0.0168693 0.0162489 0.00280188 0.00387115 0.0035793 -1.36276e-08 -4.31353e-09 -2.46294e-08 0.0005 1.46608e-07 
215 1 0.026935 0.0188837 0.00598981 1.43031e-14 2.30442e-15 -2.33189e-13 1.45584e-22 -7.61006e-23 0 0.0005 1.46608e-07 
225 1 0.0235882 0.0224141 0.0144284 -0.010473 0.00941529 -0.00993432 -4.19997e-08 7.16433e-09 -6.04598e-08 0.0005 1.46608e-07 
226 1 0.0389915 0.0223248 0.00868198 0.00134577 -0.0112039 -0.0136631 4.34815e-09 2.02034e-09 2.22209e-08 0.0005 1.46608e-07 
227 1 0.027652 0.0233925 0.0115043 0.000437762 0.000657274 -0.0211997 -1.54907e-10 -1.04503e-08 -4.59548e-09 0.0005 1.46608e-07 
229 1 0.0362326 0.0151925 0.013347 0.000218372 0.00913778 0.0188065 -9.07944e-10 1.23604e-08 1.14685e-09 0.0005 1.46608e-07 
232 1 0.0221996 0.00109062 0.0435188 9.58743e-317 9.68145e-317 4.97437e-14 0 0 0 0.0005 1.46608e-07 
235 1 0.0219664 0.014403 0.0139546 -0.00113819 -0.000619671 -0.000765243 -2.79425e-07 -3.27016e-07 2.34681e-07 0.0005 1.46608e-07 
237 1 0.0359217 0.0159501 0.0144791 0.00430213 0.00266781 0.0065366 7.93185e-06 -1.78857e-06 -1.06114e-06 0.0005 1.46608e-07 
240 1 0.0239367 0.0160313 0.0147767 0.000547763 0.0155066 0.0137037 -4.32548e-08 1.73338e-07 -1.3852e-07 0.0005 1.46608e-07 
241 1 0.0279664 0.0231729 0.0128758 0.000219541 0.00816898 -0.0157801 -3.57199e-09 -4.28368e-08 2.85207e-08 0.0005 1.46608e-07 
242 1 0.0266665 0.0212223 0.00783959 0.000580351 -0.00811445 -0.00522123 1.81743e-08 7.86849e-08 5.42435e-08 0.0005 1.46608e-07 
247 1 0.0405114 0.0216663 0.0148133 0.000435526 0.015688 -0.0128715 -2.61838e-09 3.07113e-09 -1.4476e-08 0.0005 1.46608e-07 
252 1 0.0215202 0.0233368 0.0108976 0.00105436 -0.00320362 -0.0183122 -1.42036e-08 -9.41845e-09 -4.67169e-08 0.0005 1.46608e-07 
253 1 0.0895649 0.0187731 0.00575225 -1.30231e-14 1.89996e-14 2.53777e-13 -9.90896e-20 -7.90123e-21 -4.02341e-21 0.0005 1.46608e-07 
256 1 0.0246027 0.0147559 0.0116678 0.00141433 0.000216856 0.0183856 -1.42246e-08 7.21097e-09 1.69782e-08 0.0005 1.46608e-07 
257 1 0.0244674 0.0148809 0.0124599 0.000133229 0.00506676 0.0198618 -1.35419e-09 7.32282e-09 4.95349e-09 0.0005 1.46608e-07 
258 1 0.0344016 0.0220394 0.0144885 -0.000727233 0.017584 -0.0149461 -6.66517e-09 8.79414e-10 -4.15046e-09 0.0005 1.46608e-07 
260 1 0.108836 0.0200055 0.00584234 7.53211e-16 -1.2624e-15 -6.97775e-15 0 -5.29396e-23 0 0.0005 1.46608e-07 
268 1 0.0188658 0.0146184 0.0119437 -0.00195261 -0.00127045 0.00173232 9.62419e-07 -7.53757e-07 1.2263e-06 0.0005 1.46608e-07 
269 1 0.0285076 0.0217916 0.0147701 0.000707977 0.0143933 -0.0130596 -5.97981e-09 5.23627e-09 -1.8587e-08 0.0005 1.46608e-07 
270 1 0.02621 0.0189581 0.00716439 -7.07855e-05 -0.0196818 0.00102433 -2.3822e-10 -1.15715e-08 1.07911e-08 0.0005 1.46608e-07 
271 1 0.0303493 0.0149915 0.0126916 0.000234786 0.00586026 0.0205604 -1.77575e-09 1.15843e-08 1.49341e-09 0.0005 1.46608e-07 
272 1 0.0228326 0.0146358 0.0144036 -0.00137532 -0.00212149 0.0021982 -1.32201e-07 7.66317e-08 -6.40032e-08 0.0005 1.46608e-07 
274 1 0.0194891 0.0244003 0.0134785 0.0104239 0.0108218 0.0115818 0 0 -1.43822e-06 0.0005 1.46608e-07 
275 1 0.0263232 0.0197223 0.00726415 0.000193484 -0.021423 -0.0042968 -9.21312e-10 -5.93385e-09 1.16619e-08 0.0005 1.46608e-07 
277 1 0.0232897 0.0202166 0.0158705 -0.00623895 0.0700008 -0.119724 0 0 -1.43822e-06 0.0005 1.46608e-07 
282 1 0.021322 0.0230942 0.0100138 0.00195488 -0.00625918 -0.0153433 -2.07393e-08 -6.38382e-08 -1.27349e-07 0.0005 1.46608e-07 
284 1 0.00937694 0.00505359 0.0435188 -9.68799e-317 -9.69932e-317 9.23294e-13 0 0 0 0.0005 1.46608e-07 
288 1 0.0201784 0.0139548 0.0132593 -0.0110956 0.00130613 0.00683479 0 0 -1.43822e-06 0.0005 1.46608e-07 
291 1 0.0196343 0.016487 0.00804029 0.000833612 -0.0154345 0.0124925 -6.33796e-09 2.39172e-08 -6.00291e-08 0.0005 1.46608e-07 
294 1 0.0196425 0.0142935 0.0124831 0.00290845 0.00112692 -0.00201728 -3.28291e-07 -3.66775e-07 -7.55355e-07 0.0005 1.46608e-07 
299 1 0.0254808 0.018723 0.00589902 -2.07906e-14 -3.27779e-15 3.38791e-13 -4.49722e-20 1.75083e-19 -8.47033e-22 0.0005 1.46608e-07 
300 1 0.0323231 0.0197405 0.00736003 0.000744666 -0.015013 -0.00330787 1.3411e-09 -1.05056e-08 2.85835e-09 0.0005 1.46608e-07 
