ITEM: TIMESTEP
6000000
ITEM: NUMBER OF ATOMS
210
ITEM: BOX BOUNDS ff ff ff
-0.02 0.43
-0.02 0.06
-0.02 0.07
ITEM: ATOMS id type x y z vx vy vz fx fy fz radius mass 
1 1 0.0180573 0.024044 0.0120563 0.00101335 0.00151201 -0.0126761 2.41054e-09 -9.40131e-09 -2.90901e-09 0.0005 1.46608e-07 
2 1 0.0208645 0.0213883 0.00791131 0.000351711 -0.0116332 -0.00839836 1.9466e-09 -3.21975e-08 2.74608e-09 0.0005 1.46608e-07 
3 1 0.0196982 0.0236013 0.0141485 0.00111983 -0.00293099 -0.000354833 -6.05833e-07 -1.74175e-07 1.0791e-06 0.0005 1.46608e-07 
4 1 0.0181042 0.0166075 0.0152289 -0.000112481 0.0152303 0.0104055 -8.37488e-10 -4.12749e-08 -4.05541e-08 0.0005 1.46608e-07 
5 1 0.0271826 0.0233305 0.0121145 0.000642264 0.00246156 -0.019712 -1.11323e-08 -7.28643e-09 -2.47806e-08 0.0005 1.46608e-07 
7 1 0.0235508 0.015205 0.0134634 0.00275636 0.00653304 0.0103959 -2.09584e-08 4.06774e-08 8.21656e-08 0.0005 1.46608e-07 
9 1 0.0192302 0.0237287 0.0150752 -7.18282e-05 0.000983262 -0.000559044 -8.30067e-07 6.4146e-07 -3.38121e-07 0.0005 1.46608e-07 
11 1 0.0218049 0.0233838 0.0118489 -0.00956435 -0.0031294 -0.00947378 0.000548785 0.000109086 -4.21377e-05 0.0005 1.46608e-07 
13 1 0.0188408 0.024419 0.0137654 0.000193547 0.00117871 -0.000530398 6.65834e-07 3.98885e-07 -1.48912e-07 0.0005 1.46608e-07 
15 1 0.00938048 0.0183393 0.00587271 3.64587e-15 5.39242e-16 -3.69009e-14 2.91168e-22 -9.1023e-21 0 0.0005 1.46608e-07 
16 1 0.0162262 0.0232276 0.0129418 0.00523231 0.00198397 -0.0041386 -1.04971e-06 -1.79391e-07 -8.07102e-07 0.0005 1.46608e-07 
17 1 0.0246908 0.0181304 0.0158626 -5.9364e-09 0.0201207 0.00438319 4.20639e-11 3.32641e-09 -1.53322e-08 0.0005 1.46608e-07 
18 1 0.0366849 0.0218066 0.0435188 -9.6879e-317 9.73506e-317 2.68131e-13 0 0 0 0.0005 1.46608e-07 
19 1 0.0209167 0.0224735 0.01554 -0.00594702 0.0016838 -0.00364082 -7.11447e-08 7.49244e-08 -4.92364e-08 0.0005 1.46608e-07 
20 1 0.0295252 0.0152886 0.0135055 -6.92807e-05 0.00919601 0.0206908 -1.33273e-09 1.10669e-08 -8.85832e-10 0.0005 1.46608e-07 
23 1 0.0179639 0.0242053 0.0133643 0.000338248 0.000189582 -0.000501561 2.1464e-07 -7.3227e-07 -1.28638e-06 0.0005 1.46608e-07 
24 1 0.0252859 0.0216527 0.0166892 -0.000141353 0.000174045 -5.74999e-05 2.16488e-07 -2.27714e-07 2.00379e-07 0.0005 1.46608e-07 
25 1 0.0165989 0.0229904 0.0143503 0.0103132 0.00183421 0.00561185 1.77371e-07 -7.20705e-06 -4.53799e-06 0.0005 1.46608e-07 
26 1 0.0187325 0.0238858 0.0159281 -0.00259559 0.000913756 0.000316953 -1.27826e-06 9.71178e-07 -6.78654e-07 0.0005 1.46608e-07 
27 1 0.0204418 0.022534 0.00897828 0.000660736 -0.00911517 -0.0127827 -9.87437e-09 -4.66226e-08 -2.63501e-08 0.0005 1.46608e-07 
28 1 0.0273848 0.0230045 0.0131967 -0.000360213 0.0112 -0.0197804 -1.62714e-09 -9.64004e-09 -6.77733e-09 0.0005 1.46608e-07 
29 1 0.0239737 0.0162312 0.0149341 -0.000670725 0.00724539 0.00556711 -1.52901e-08 -9.19367e-08 -7.22097e-08 0.0005 1.46608e-07 
30 1 0.0189029 0.01453 0.012285 0.000834731 0.00481947 0.0216264 -3.42865e-07 -1.37936e-06 -5.2294e-07 0.0005 1.46608e-07 
31 1 0.0198302 0.024442 0.0136707 7.65628e-05 -0.000895223 -8.45311e-05 2.54723e-06 -3.25192e-07 2.06289e-06 0.0005 1.46608e-07 
32 1 0.0173044 0.0142677 0.0148644 -0.00806701 0.00921439 0.0196856 8.11487e-07 2.20556e-07 -7.62047e-08 0.0005 1.46608e-07 
33 1 0.0226372 0.0223229 0.0145155 0.00169113 0.00641113 -0.00542968 -8.28404e-06 -1.15432e-05 -4.57988e-06 0.0005 1.46608e-07 
34 1 0.018706 0.0140083 0.0141111 -0.00679198 -0.0234401 0.011402 0 0 -1.43822e-06 0.0005 1.46608e-07 
35 1 0.0134291 0.0201663 0.0166412 -0.00413431 -0.003791 0.00305341 1.21307e-07 -1.14145e-07 4.55574e-08 0.0005 1.46608e-07 
36 1 0.0231184 0.0167061 0.0152789 0.000768933 0.0166409 0.010496 -4.32593e-09 2.36816e-08 -8.66598e-10 0.0005 1.46608e-07 
37 1 0.0261067 0.0215161 0.00806971 -2.44321e-05 -0.0170541 -0.0128907 6.89465e-10 1.2047e-09 1.55039e-08 0.0005 1.46608e-07 
40 1 0.0214144 0.0239139 0.0133564 0.000328427 -0.000314561 0.000346757 1.49283e-06 5.54699e-07 1.44428e-06 0.0005 1.46608e-07 
41 1 0.0224174 0.0198827 0.0158809 -7.29243e-08 0.0201067 -0.00372093 -3.90843e-10 -1.96307e-07 3.4495e-08 0.0005 1.46608e-07 
43 1 0.0200323 0.0179802 0.00731445 0.000383171 -0.0200917 0.00422368 -1.67078e-10 -4.55884e-09 1.16817e-08 0.0005 1.46608e-07 
44 1 0.0187339 0.0235447 0.0141791 0.000180721 0.00311798 -0.00144395 4.67002e-07 2.37097e-07 -6.24853e-07 0.0005 1.46608e-07 
45 1 0.0188403 0.0172036 0.0155496 0.000901378 0.0159241 0.00682719 -3.83258e-08 -6.80096e-11 -1.25736e-08 0.0005 1.46608e-07 
47 1 0.0182399 0.0146049 0.0149683 -0.00400917 0.00527702 -0.0075475 1.2301e-06 5.6523e-07 -3.53714e-07 0.0005 1.46608e-07 
49 1 0.003617 0.0285782 0.0435188 5.10444e-57 2.66703e-57 2.88878e-12 8.46398e-61 4.42236e-61 0 0.0005 1.46608e-07 
50 1 0.0214716 0.0240766 0.0144422 0.000208839 0.000607603 -0.000317882 -7.56818e-07 5.32611e-07 -1.16158e-06 0.0005 1.46608e-07 
51 1 0.0168377 0.0226758 0.0155364 -0.00762608 -1.53965e-05 0.00208316 1.81589e-06 -5.65671e-07 -9.70314e-07 0.0005 1.46608e-07 
52 1 0.0258825 0.0187883 0.0167235 0.000246006 -0.000566744 -0.000475776 -6.95505e-08 8.87446e-07 2.8374e-07 0.0005 1.46608e-07 
54 1 0.0173028 0.0194348 0.0159254 -6.91859e-05 0.0203974 -0.00174274 -4.09921e-08 1.23694e-08 -1.47794e-08 0.0005 1.46608e-07 
57 1 0.0196051 0.0193773 0.00612808 -3.58963e-14 1.61029e-14 -3.28527e-13 -4.23516e-22 -1.92435e-20 -8.47033e-22 0.0005 1.46608e-07 
59 1 0.0279509 0.0215534 0.0149832 0.000669252 0.0148481 -0.0121507 -3.92559e-09 2.23112e-10 -1.79245e-08 0.0005 1.46608e-07 
62 1 0.0204976 0.0239955 0.0145386 0.000956934 -0.000830708 0.00036438 -1.82322e-06 1.40195e-06 -2.0021e-06 0.0005 1.46608e-07 
63 1 0.0141033 0.020604 0.0173307 -0.00122871 -0.0142815 -0.00531448 7.58074e-07 3.49509e-07 3.35938e-07 0.0005 1.46608e-07 
64 1 0.0240523 0.0222481 0.0162631 0.000345907 0.000597771 0.000704794 -7.73209e-07 -6.17181e-07 2.86736e-08 0.0005 1.46608e-07 
65 1 0.0269076 0.0214267 0.00792565 0.000139472 -0.013951 -0.0104488 -8.63683e-09 1.2762e-07 1.00608e-07 0.0005 1.46608e-07 
67 1 0.0277221 0.022201 0.0142625 0.000353413 0.0140848 -0.0162468 -3.86455e-09 -3.20852e-10 -1.41155e-08 0.0005 1.46608e-07 
68 1 0.0280848 0.0208842 0.0153779 0.000564919 0.0187009 -0.00764408 1.82659e-10 -1.88621e-09 -6.4929e-09 0.0005 1.46608e-07 
71 1 0.0245026 0.0197458 0.0167261 0.00333003 0.00624164 0.00718307 8.15238e-07 1.84704e-06 1.51376e-06 0.0005 1.46608e-07 
73 1 0.0185868 0.0149798 0.0134817 0.000489746 0.00726629 0.0193478 4.30942e-07 1.79902e-07 7.07211e-07 0.0005 1.46608e-07 
74 1 0.0205008 0.0240916 0.0130446 -9.02195e-05 -0.00141739 0.000186215 1.23587e-08 1.7014e-07 -3.00629e-06 0.0005 1.46608e-07 
76 1 0.0206317 0.0216527 0.016092 0.00213939 0.0228931 -0.0124455 -9.82469e-07 4.24599e-07 -2.8151e-07 0.0005 1.46608e-07 
79 1 0.0258399 0.0204587 0.0074699 0.00063204 -0.0114021 -0.00592422 1.98772e-09 2.86289e-08 9.3995e-09 0.0005 1.46608e-07 
80 1 0.0139822 0.0209659 0.0164064 -0.00283054 -0.00579661 -0.00159201 2.09233e-06 4.21946e-06 4.7514e-06 0.0005 1.46608e-07 
83 1 0.0187511 0.0228688 0.0151083 -0.00228863 0.00360968 -0.00476941 -1.79676e-06 3.09364e-06 -4.01198e-06 0.0005 1.46608e-07 
84 1 0.019756 0.0144327 0.0127621 0.000172789 0.0070578 0.0233599 -4.40321e-07 8.20529e-07 2.1246e-06 0.0005 1.46608e-07 
85 1 0.0180393 0.0210886 0.0154465 0.00424161 0.00211441 -0.000673638 1.44543e-08 1.03176e-06 -2.26125e-07 0.0005 1.46608e-07 
86 1 0.0233554 0.0195094 0.0159193 -4.4994e-08 0.020393 -0.00217553 -2.37566e-12 -1.47667e-09 -1.35665e-08 0.0005 1.46608e-07 
87 1 0.0263781 0.0222917 0.00869175 0.00119929 -0.0118745 -0.0118683 -1.13038e-09 -3.40225e-08 5.41936e-09 0.0005 1.46608e-07 
88 1 0.0283365 0.0196312 0.0158015 0.00140599 0.0196385 0.000642078 0.000753133 -0.00211601 0.00685538 0.0005 1.46608e-07 
89 1 0.0290168 0.0168673 0.0151645 0.000209226 0.0183935 0.0112964 -2.40319e-09 1.14533e-08 -5.95574e-09 0.0005 1.46608e-07 
90 1 0.0185334 0.0204889 0.0165496 -0.000600799 0.0116614 0.0104016 8.03996e-07 1.5235e-07 1.55635e-07 0.0005 1.46608e-07 
91 1 0.022967 0.0233837 0.014314 4.69221e-05 -0.000270587 -9.23409e-05 -4.77827e-07 2.50172e-06 -5.38808e-07 0.0005 1.46608e-07 
92 1 0.0255609 0.0191301 0.00717947 0.00280259 -0.0133372 0.00215656 -9.25485e-06 8.05414e-06 2.1793e-05 0.0005 1.46608e-07 
93 1 0.0183131 0.0222138 0.015724 -0.00390894 0.00614306 0.00374903 8.92386e-07 4.40256e-06 -4.11683e-06 0.0005 1.46608e-07 
95 1 0.019018 0.0151953 0.0147502 -0.00101717 0.0103795 0.0161826 -3.92067e-07 1.49964e-09 -7.33488e-08 0.0005 1.46608e-07 
97 1 0.0169976 0.0241281 0.0143647 -0.000253183 -1.33273e-05 -0.000159854 5.55437e-07 -3.18752e-07 4.86855e-07 0.0005 1.46608e-07 
98 1 0.0402943 0.024331 0.06147 0.173076 0.0253722 -0.281716 0 0 -1.43822e-06 0.0005 1.46608e-07 
99 1 0.0217822 0.0232585 0.014306 2.83817e-06 0.00262366 -0.00370542 -9.84848e-07 -6.13338e-07 4.65192e-06 0.0005 1.46608e-07 
102 1 0.0222126 0.0237794 0.0139096 0.000634419 0.00112362 0.000510865 6.03993e-07 -3.39379e-07 1.84708e-06 0.0005 1.46608e-07 
103 1 0.0220403 0.021267 0.0154585 0.000196661 0.0171911 -0.0093047 4.65565e-06 -2.12589e-05 5.96531e-07 0.0005 1.46608e-07 
104 1 0.0247565 0.0218803 0.0158715 0.0001791 0.0019758 5.09587e-05 -6.86987e-07 1.16466e-06 -1.10986e-06 0.0005 1.46608e-07 
105 1 0.0172881 0.0163555 0.0158582 0.00739666 0.0121924 0.0105302 8.01676e-08 5.84721e-08 3.59283e-07 0.0005 1.46608e-07 
106 1 0.0187751 0.0240896 0.0128167 0.000164277 0.00148414 -0.00277841 -1.25195e-08 1.22284e-07 -4.18747e-07 0.0005 1.46608e-07 
108 1 0.0214483 0.0168437 0.00645098 -2.38749e-14 5.08822e-14 1.84335e-13 -5.23572e-20 -1.77877e-20 -5.0822e-21 0.0005 1.46608e-07 
109 1 0.0242105 0.0201463 0.0158054 0.000387271 0.00951075 -0.00407908 0 0 -1.43822e-06 0.0005 1.46608e-07 
110 1 0.0174778 0.0154604 0.0141276 0.000576389 0.0119754 0.0165305 -2.90518e-08 2.03385e-09 -2.81959e-07 0.0005 1.46608e-07 
111 1 0.0189548 0.019591 0.0167108 0.00609399 -0.00221928 -0.00109863 0 0 -1.43822e-06 0.0005 1.46608e-07 
112 1 0.019465 0.0152729 0.0138592 0.000611466 0.0108021 0.0166814 -2.34181e-07 3.40726e-07 6.60344e-07 0.0005 1.46608e-07 
114 1 0.0177541 0.022828 0.0151669 -0.00483796 0.00344905 0.00656404 4.20375e-06 1.17237e-06 1.94001e-06 0.0005 1.46608e-07 
116 1 0.0213118 0.0228553 0.00948769 4.19442e-06 -0.000691729 -0.000727987 -5.00141e-11 2.51971e-09 -7.37977e-09 0.0005 1.46608e-07 
117 1 0.0211982 0.0234329 0.0155394 -0.00128468 0.000376737 -0.00148738 -6.68537e-08 3.55481e-08 -5.15554e-08 0.0005 1.46608e-07 
118 1 0.0201992 0.0238427 0.0155602 0.000555828 -0.000358508 -0.000541233 -1.56931e-07 -1.32528e-07 -7.17903e-07 0.0005 1.46608e-07 
121 1 0.0551067 0.0178697 0.00597491 9.89046e-15 1.32689e-14 1.89991e-13 -1.44922e-20 -3.17637e-22 6.35275e-22 0.0005 1.46608e-07 
122 1 0.0300122 0.0147693 0.0115391 0.000850777 0.000946404 0.0182705 -2.53437e-09 1.65297e-08 1.19359e-08 0.0005 1.46608e-07 
124 1 0.0160499 0.0159061 0.0158285 0.0476404 0.00722704 0.0609114 0 0 -1.43822e-06 0.0005 1.46608e-07 
125 1 0.0297883 0.0149231 0.0124193 0.000390073 0.00479944 0.020057 -2.01798e-09 1.11006e-08 4.47316e-09 0.0005 1.46608e-07 
126 1 0.0124058 0.0196959 0.0163692 0.00271097 -0.000235256 -0.00661567 -5.26127e-09 2.73418e-09 -2.33152e-08 0.0005 1.46608e-07 
127 1 0.0156307 0.0198874 0.0167365 0.0119337 0.0165117 -0.00285485 -3.07419e-07 3.48389e-07 -1.89415e-07 0.0005 1.46608e-07 
128 1 0.0303903 0.00406748 0.0435188 -9.67556e-317 -9.75879e-317 -3.22607e-12 0 0 0 0.0005 1.46608e-07 
130 1 0.0159629 0.0223204 0.0158652 -0.00429901 -0.00405925 0.00616455 -1.228e-06 1.57244e-06 -2.85399e-06 0.0005 1.46608e-07 
131 1 0.0172674 0.0161628 0.0148772 0.00145759 0.0121892 0.0106009 8.09367e-08 -1.53157e-07 -2.61853e-08 0.0005 1.46608e-07 
132 1 0.0246033 0.0207313 0.016534 0.00155166 0.01068 -0.0130957 -9.30156e-07 -1.65172e-07 -7.46275e-07 0.0005 1.46608e-07 
133 1 0.0196121 0.0140825 0.0136875 -0.00515034 -0.00241776 0.0195114 -2.72453e-06 -1.76451e-06 6.85473e-07 0.0005 1.46608e-07 
134 1 0.0236023 0.0218586 0.015293 0.00830017 -0.0113086 0.032904 -1.34663e-06 5.3994e-06 -3.45871e-06 0.0005 1.46608e-07 
135 1 0.0292824 0.015949 0.0145295 0.000833636 0.0137093 0.0140375 -2.91027e-09 1.46792e-08 -2.30539e-09 0.0005 1.46608e-07 
137 1 0.0196546 0.0155613 0.0154885 0.00233393 0.00197273 0.000379277 -4.63236e-07 -5.66591e-07 -5.28083e-07 0.0005 1.46608e-07 
138 1 0.0186763 0.0214174 0.0162072 0.000468259 0.0102482 0.00771433 -1.26416e-06 -1.31826e-06 3.34209e-07 0.0005 1.46608e-07 
139 1 0.0156349 0.0232001 0.0153109 0.00157805 -0.00228771 -0.00240723 1.68403e-07 1.02076e-07 -1.18467e-06 0.0005 1.46608e-07 
141 1 0.0258123 0.0197856 0.0166959 -0.000112954 0.000134956 0.000162575 3.00264e-07 -8.26122e-08 -4.43203e-07 0.0005 1.46608e-07 
142 1 0.0302634 0.0149065 0.0104 6.09486e-06 -0.00650425 0.0210531 -1.02622e-09 9.02385e-09 6.69847e-09 0.0005 1.46608e-07 
143 1 0.0195121 0.0145636 0.0153497 0.00187784 0.00253296 0.0101488 0 0 -1.43822e-06 0.0005 1.46608e-07 
145 1 0.0206102 0.0140849 0.0131473 0.00647901 0.0030423 0.00970503 6.81682e-06 1.01785e-06 1.69361e-06 0.0005 1.46608e-07 
147 1 0.0208136 0.0137272 0.0140582 0.00538706 -0.00298933 0.00998033 5.67779e-06 -9.4616e-07 2.07731e-05 0.0005 1.46608e-07 
148 1 0.0220644 0.0232682 0.0129692 0.000447915 0.000593396 -0.00096159 1.8748e-06 -2.32055e-06 3.92366e-07 0.0005 1.46608e-07 
149 1 0.0243264 0.0191437 0.0159475 -0.00118199 0.0160799 -0.000496959 -1.51684e-07 9.41151e-07 1.13401e-06 0.0005 1.46608e-07 
150 1 0.0234357 0.01558 0.0143851 -0.00236074 0.0135653 0.00900392 0 0 -1.43822e-06 0.0005 1.46608e-07 
151 1 0.0196168 0.0241499 0.0163129 -0.000585183 -0.000659703 -0.00122667 2.28939e-07 -2.14827e-07 -9.34849e-07 0.0005 1.46608e-07 
153 1 0.0199813 0.0211161 0.00774981 0.000920129 -0.0174765 -0.00839719 -7.19806e-09 -3.50645e-08 -8.85708e-09 0.0005 1.46608e-07 
154 1 0.0201136 0.0230562 0.0161722 -0.00246426 -0.00119021 -0.000329825 -2.78515e-09 2.62806e-06 2.38967e-06 0.0005 1.46608e-07 
155 1 0.0196326 0.0216649 0.0160514 0.000359704 0.00952707 -0.00313119 -1.01031e-07 5.16338e-08 -1.15201e-06 0.0005 1.46608e-07 
157 1 0.0171079 0.0238875 0.0130107 -0.000172138 -0.000334178 0.000208206 -1.14158e-07 4.20484e-07 -9.55743e-07 0.0005 1.46608e-07 
158 1 0.0211964 0.0233814 0.0123445 0.0175811 -0.00410201 0.0634584 -0.000371492 0.000171047 -0.00225125 0.0005 1.46608e-07 
160 1 0.0272742 0.0226183 0.00900965 0.00145113 -0.00595929 -0.00893409 1.84367e-08 5.06224e-07 4.83591e-07 0.0005 1.46608e-07 
161 1 0.0228995 0.0175981 0.0156993 0.000548559 0.0194457 0.0067723 -1.74598e-10 5.32923e-09 -1.27447e-08 0.0005 1.46608e-07 
164 1 0.0185806 0.0156447 0.015529 0.00254447 0.0143338 0.0162959 -2.12763e-07 1.2277e-07 -5.26767e-07 0.0005 1.46608e-07 
165 1 0.0171024 0.0235857 0.0151982 -0.00441739 0.00477191 0.00462424 -9.7128e-07 1.64566e-06 4.55523e-07 0.0005 1.46608e-07 
166 1 0.0177691 0.0235733 0.0142104 0.000136913 0.00198913 -0.00178624 1.56212e-06 4.27789e-07 9.09566e-07 0.0005 1.46608e-07 
167 1 0.0129843 0.0210246 0.0163852 -0.00295368 -0.00419777 0.000714248 1.86188e-06 2.89721e-06 8.18382e-07 0.0005 1.46608e-07 
170 1 0.0237293 0.0149318 0.0126531 0.00213988 0.00544212 0.0134794 -3.85362e-08 3.4772e-08 1.64991e-07 0.0005 1.46608e-07 
171 1 0.0176204 0.0184843 0.015907 -0.000418082 0.0245905 0.00292101 1.75828e-07 -8.61485e-07 1.46407e-07 0.0005 1.46608e-07 
173 1 0.0249017 0.0163964 0.00814073 0.00162406 -0.0137504 0.00982971 1.18175e-05 2.09586e-05 -1.11991e-05 0.0005 1.46608e-07 
174 1 0.0205326 0.0160017 0.0157718 0.000938082 0.00644677 0.00536462 -5.31484e-08 -2.79451e-07 1.66067e-06 0.0005 1.46608e-07 
175 1 0.0230434 0.0145566 0.0149322 1.37347e-05 0.00238038 -0.00732874 0 0 -1.43822e-06 0.0005 1.46608e-07 
177 1 0.0199533 0.0146259 0.0144543 -0.00174931 0.00831399 0.012978 9.2764e-07 1.71202e-06 -6.58115e-07 0.0005 1.46608e-07 
179 1 0.0148962 0.0155269 0.0153959 0.0012494 -0.00114723 0.000369463 3.9062e-09 -3.79046e-09 2.46201e-08 0.0005 1.46608e-07 
184 1 0.0177776 0.0146926 0.0129693 2.29669e-05 0.00582887 0.0211842 1.00272e-06 -1.40152e-07 -4.17701e-07 0.0005 1.46608e-07 
185 1 0.0251842 0.0177593 0.00742409 -0.000844013 -0.0233792 0.00448606 2.0302e-08 4.23163e-08 -2.01793e-08 0.0005 1.46608e-07 
186 1 0.0248633 0.0187651 0.0167014 -0.00452012 -0.00209666 -0.00985477 2.97e-07 -8.80492e-09 2.27066e-07 0.0005 1.46608e-07 
187 1 0.020797 0.0232458 0.0104326 -0.0034643 -0.00407852 -0.017725 -3.015e-05 2.18946e-05 7.61962e-06 0.0005 1.46608e-07 
191 1 0.0221798 0.0146688 0.0144362 -0.00171316 -0.000783131 -0.00302555 -3.89084e-09 -4.81679e-07 -4.83224e-07 0.0005 1.46608e-07 
192 1 0.0256002 0.0207327 0.0164555 -0.000107949 0.000379398 -0.000277891 1.07618e-06 4.93815e-07 -1.28623e-06 0.0005 1.46608e-07 
193 1 0.0205216 0.0152492 0.0151001 -0.000500218 2.99504e-05 -0.00300736 1.36024e-06 1.48504e-06 2.17097e-06 0.0005 1.46608e-07 
194 1 0.0241245 0.0225301 0.0153753 0.00269155 -0.00285676 0.00260555 -1.13387e-06 3.01173e-06 -1.61894e-06 0.0005 1.46608e-07 
197 1 0.0224576 0.0228585 0.0137248 0.00180283 0.00335644 -0.00432392 -2.80334e-07 -2.21856e-06 4.35594e-06 0.0005 1.46608e-07 
199 1 0.0175396 0.0144573 0.0139114 -0.00435731 0.00917387 0.021035 -2.39247e-06 2.22227e-06 -1.40327e-06 0.0005 1.46608e-07 
200 1 0.0140272 0.022513 0.0154825 -0.00131632 -0.00360127 -0.0020893 5.82718e-07 6.2426e-07 -5.23713e-07 0.0005 1.46608e-07 
201 1 0.0191531 0.0162023 0.0149075 0.00364119 0.0124034 0.0104557 -5.96696e-07 -2.09056e-07 -2.0566e-07 0.0005 1.46608e-07 
203 1 0.0215925 0.022601 0.0140369 0.000590955 0.00942018 -0.0133353 5.19085e-07 -1.25779e-06 3.35586e-06 0.0005 1.46608e-07 
205 1 0.0234723 0.0225482 0.0142412 0.00112411 0.000687401 -0.00170532 -5.84052e-06 1.44589e-06 -5.53784e-06 0.0005 1.46608e-07 
206 1 0.0209512 0.0146691 0.0144083 -0.000452795 0.00231889 -0.00470353 5.18709e-07 -9.07472e-07 1.49164e-06 0.0005 1.46608e-07 
208 1 0.024216 0.0147131 0.011466 -1.17933e-05 -0.00183179 0.0223265 1.65439e-08 9.52015e-09 5.40548e-09 0.0005 1.46608e-07 
211 1 0.0168934 0.0238448 0.0164926 -0.000720917 -0.000179708 4.91251e-05 -1.65514e-06 2.4581e-07 -2.15273e-07 0.0005 1.46608e-07 
214 1 0.0240377 0.017067 0.0154802 0.000386559 0.00691287 0.00258409 -1.21754e-08 -4.95197e-08 -1.72359e-08 0.0005 1.46608e-07 
215 1 0.024423 0.0151649 0.00964439 0.000440824 -0.00738844 0.0128739 2.22622e-09 1.41249e-08 -2.12701e-08 0.0005 1.46608e-07 
218 1 0.018752 0.0139891 0.0131124 -0.00242706 -0.00965452 0.0125699 3.84343e-07 -2.567e-07 -1.29348e-07 0.0005 1.46608e-07 
220 1 0.015014 0.0148564 0.0146634 0.00115493 -0.00103932 0.000257436 7.72899e-09 -1.26831e-08 2.22524e-08 0.0005 1.46608e-07 
221 1 0.0239406 0.0211099 0.0158877 -0.0111871 0.0141529 0.00776794 0 0 -1.43822e-06 0.0005 1.46608e-07 
223 1 0.0147791 0.0203924 0.0165964 0.00201437 -0.000287834 -0.004597 3.24275e-07 5.18145e-07 -7.9741e-07 0.0005 1.46608e-07 
224 1 0.0164343 0.0237424 0.0137155 -0.00109667 -0.000542763 0.000241631 1.22232e-06 -1.29105e-06 -2.82796e-07 0.0005 1.46608e-07 
225 1 0.0185487 0.0188531 0.0159434 -0.000167282 0.024338 0.00116354 -1.57723e-07 1.02259e-06 -1.80056e-07 0.0005 1.46608e-07 
226 1 0.0286194 0.0187765 0.0158153 0.00312277 0.0124042 -0.0471733 -0.0173044 -0.0136639 -0.250053 0.0005 1.46608e-07 
227 1 0.0155163 0.0229803 0.0135316 0.0047859 0.00156668 -0.00351248 3.93754e-07 -6.61892e-07 7.24075e-07 0.0005 1.46608e-07 
228 1 0.0144348 0.0218552 0.0164689 -0.00433871 -0.00554045 0.00349671 6.0541e-07 1.08025e-06 -1.1816e-07 0.0005 1.46608e-07 
229 1 0.0269949 0.0233701 0.0111352 -5.48079e-06 -0.000303917 -0.02237 -4.35849e-09 -6.65339e-09 -3.18557e-08 0.0005 1.46608e-07 
230 1 0.0182722 0.0158439 0.0145985 0.00232056 0.0119503 0.0134303 2.01849e-07 6.368e-08 -3.15883e-07 0.0005 1.46608e-07 
231 1 0.0234456 0.0230971 0.0150723 -0.00225655 -0.00785519 -0.000412774 -4.01205e-06 2.51422e-06 -1.02316e-06 0.0005 1.46608e-07 
232 1 0.0222866 0.00166856 0.0435188 -9.69483e-317 -9.75823e-317 -3.22607e-12 0 0 0 0.0005 1.46608e-07 
235 1 0.019681 0.0224824 0.0154769 -0.00307882 0.00111302 -0.000972793 1.20485e-07 1.80116e-06 -3.17417e-06 0.0005 1.46608e-07 
237 1 0.0265104 0.0228247 0.00936175 0.00141802 -0.00483658 -0.00969891 3.51113e-08 1.46037e-07 2.41766e-07 0.0005 1.46608e-07 
239 1 0.0155603 0.0211953 0.0163358 0.00136906 0.0110357 -0.00412841 -1.80011e-07 5.56595e-07 -2.31247e-07 0.0005 1.46608e-07 
240 1 0.0182332 0.0198003 0.0158897 -0.00140412 0.0243304 -0.00365678 1.25244e-06 3.10309e-06 -1.48705e-06 0.0005 1.46608e-07 
241 1 0.0239079 0.0212771 0.0170605 -0.0344699 -0.0535606 0.00811551 0 0 -1.43822e-06 0.0005 1.46608e-07 
242 1 0.0166044 0.0142244 0.0136132 0.00212383 -0.00126275 -0.000703957 2.34141e-07 -8.52782e-08 4.25001e-09 0.0005 1.46608e-07 
246 1 0.0135583 0.0217848 0.0159927 -0.0013946 -0.00438789 -0.00490838 2.46873e-06 -1.33096e-07 3.56121e-07 0.0005 1.46608e-07 
247 1 0.0290839 0.0197013 0.0157721 0.00261376 0.015312 -0.0032367 1.16417e-05 -2.54597e-05 -3.54894e-05 0.0005 1.46608e-07 
248 1 0.0157556 0.0224601 0.01435 0.00545865 0.00373576 -0.0024796 9.94691e-07 -3.95559e-06 6.20809e-06 0.0005 1.46608e-07 
249 1 0.0170633 0.0152093 0.0150995 0.00115921 0.0130163 0.0139211 2.82773e-07 -2.1686e-07 -3.83571e-07 0.0005 1.46608e-07 
250 1 0.0236928 0.0182049 0.0158727 6.63119e-09 0.0201602 0.00409344 -9.7227e-13 2.89616e-09 -1.33941e-08 0.0005 1.46608e-07 
251 1 0.0166165 0.0220608 0.0147761 0.0067855 0.00220263 -0.00307245 -3.09809e-07 1.16711e-06 -9.72557e-07 0.0005 1.46608e-07 
252 1 0.0177371 0.023792 0.0159588 -0.00080064 0.000281267 -0.000613694 3.82937e-06 -1.68877e-06 -1.27046e-06 0.0005 1.46608e-07 
253 1 0.014735 0.0231052 0.0148852 0.000608632 -0.000240003 -0.000622436 1.34238e-07 -1.72013e-07 1.0584e-08 0.0005 1.46608e-07 
254 1 0.0160791 0.0150565 0.0149509 0.00507084 -0.00090123 -0.0023925 -1.27776e-07 -3.71718e-07 -4.47902e-07 0.0005 1.46608e-07 
255 1 0.0190429 0.017036 0.00771945 0.00190059 -0.013242 0.00854905 -1.88475e-07 4.56091e-07 -2.42861e-07 0.0005 1.46608e-07 
256 1 0.0188279 0.016099 0.00835615 0.000449092 -0.0143006 0.0138985 -4.19457e-09 -4.31651e-09 1.88549e-08 0.0005 1.46608e-07 
257 1 0.0141946 0.0195286 0.0167268 0.00700268 0.00941285 -0.0009142 -3.66211e-07 8.79617e-07 -1.05806e-07 0.0005 1.46608e-07 
258 1 0.0247406 0.0157473 0.00869717 0.000762991 -0.00970463 0.012692 -1.95725e-05 -9.03515e-06 1.37428e-05 0.0005 1.46608e-07 
260 1 0.108836 0.0200055 0.00584234 7.53259e-16 -1.27895e-15 -6.97473e-15 2.64698e-23 -1.37643e-21 2.11758e-22 0.0005 1.46608e-07 
262 1 0.0160437 0.0153583 0.0168472 0.0867198 -0.102236 0.149921 0 0 -1.43822e-06 0.0005 1.46608e-07 
263 1 0.0245367 0.0158813 0.0156829 3.22021e-05 -0.00101478 0.00117525 -4.86984e-08 -4.1482e-08 -3.6185e-08 0.0005 1.46608e-07 
264 1 0.0168359 0.0178766 0.0157874 -8.28041e-05 0.0229536 0.00666822 6.60142e-07 -2.47222e-06 -1.33283e-07 0.0005 1.46608e-07 
265 1 0.0224728 0.022706 0.0154394 0.00287646 -0.000508072 0.00505849 0 0 -1.43822e-06 0.0005 1.46608e-07 
267 1 0.0155983 0.0230337 0.0171973 -0.000388381 -0.000258628 0.000559035 4.22474e-07 -1.78101e-07 -2.33959e-07 0.0005 1.46608e-07 
268 1 0.0176103 0.021845 0.014953 0.00461547 0.00223218 -0.00158698 2.53364e-06 -1.772e-06 6.14804e-07 0.0005 1.46608e-07 
269 1 0.0162042 0.0231253 0.0164072 -0.000535975 -0.000144764 -0.00030674 5.53175e-07 -3.02486e-07 -7.93819e-07 0.0005 1.46608e-07 
270 1 0.0248784 0.0193012 0.017546 0.00116863 -0.011048 -0.00719806 0 0 -1.43822e-06 0.0005 1.46608e-07 
271 1 0.0174862 0.0225425 0.0142473 0.0112372 0.000797349 -0.000404848 4.4523e-06 -2.8873e-06 2.93829e-06 0.0005 1.46608e-07 
272 1 0.0226297 0.0236484 0.0151356 0.00102659 -0.000516088 0.000388618 -1.18015e-06 8.18916e-07 -4.76562e-07 0.0005 1.46608e-07 
273 1 0.0215808 0.0142814 0.0137352 -0.00132832 0.000602406 -0.0035194 1.08622e-07 1.56094e-07 -3.69993e-07 0.0005 1.46608e-07 
274 1 0.0192381 0.0180336 0.00729469 0.000716921 -0.0168953 0.00418586 -3.11852e-10 -2.1121e-08 3.09155e-08 0.0005 1.46608e-07 
275 1 0.0179725 0.0146416 0.0119901 0.000439955 0.00230348 0.0218417 -3.73463e-07 4.30272e-07 -7.25782e-07 0.0005 1.46608e-07 
276 1 0.0149667 0.0223579 0.0157876 -0.0034043 -0.00679618 0.00380789 -3.25091e-07 -1.18361e-07 -2.89403e-07 0.0005 1.46608e-07 
277 1 0.021005 0.0233999 0.0113355 -0.00163873 -0.000223456 -0.00860998 -1.75763e-05 3.90407e-06 -0.000177413 0.0005 1.46608e-07 
280 1 0.0182205 0.023709 0.0150874 -0.000258316 0.00163083 -0.0019774 -1.7034e-07 6.45871e-07 2.1191e-07 0.0005 1.46608e-07 
282 1 0.0153933 0.0221251 0.0166639 -0.0033779 0.00509731 0.0115139 8.48476e-08 4.61431e-07 -1.49492e-06 0.0005 1.46608e-07 
283 1 0.0218814 0.021989 0.0148615 4.12296e-05 0.0140283 -0.0120236 -4.3465e-07 -4.73191e-06 5.97731e-06 0.0005 1.46608e-07 
284 1 0.00937694 0.00505359 0.0435188 -9.68799e-317 -9.69932e-317 9.23294e-13 0 0 0 0.0005 1.46608e-07 
285 1 0.0228442 0.0214824 0.0152049 0.00545969 0.00235762 0.000414055 2.56602e-06 -5.63344e-06 -9.82841e-07 0.0005 1.46608e-07 
286 1 0.0158151 0.0145031 0.0141602 0.00171256 -0.000228124 -0.00177261 -2.88158e-07 1.15226e-07 -1.47979e-08 0.0005 1.46608e-07 
288 1 0.0228875 0.0220273 0.016068 0.0149628 -0.00598415 0.0120172 0 0 -1.43822e-06 0.0005 1.46608e-07 
289 1 0.0221264 0.0153151 0.0151975 -0.00323017 -0.0024938 -0.00123203 1.31304e-08 -2.70332e-07 -2.10016e-07 0.0005 1.46608e-07 
291 1 0.0242459 0.0148756 0.0104661 0.000399828 -0.00416215 0.0184894 1.70178e-09 1.10164e-08 5.78026e-09 0.0005 1.46608e-07 
293 1 0.0201771 0.0231115 0.0148785 0.000137221 -0.0012203 -0.000217482 1.96034e-07 1.02837e-07 5.62116e-07 0.0005 1.46608e-07 
294 1 0.0170727 0.0230225 0.0134733 -0.000464205 -0.000696528 0.000480079 5.67129e-06 1.02002e-06 -1.92759e-06 0.0005 1.46608e-07 
295 1 0.0254036 0.0178983 0.0166293 -0.00377814 0.00466467 0.000349602 1.62188e-07 4.53268e-07 1.29657e-07 0.0005 1.46608e-07 
296 1 0.0227772 0.018604 0.0159206 8.26008e-08 0.0204094 0.00201892 4.72039e-11 1.41351e-09 -1.35714e-08 0.0005 1.46608e-07 
298 1 0.0157086 0.0235054 0.0143613 -0.000494251 -0.00128644 -0.00200152 -2.14705e-07 5.56088e-07 3.50728e-07 0.0005 1.46608e-07 
299 1 0.024947 0.0190645 0.00586966 2.63167e-15 2.35695e-16 -4.25296e-14 -1.93494e-20 1.18911e-19 0 0.0005 1.46608e-07 
300 1 0.0201844 0.0218122 0.00822512 0.000298972 -0.0153619 -0.0127273 1.81708e-10 -1.50583e-08 -2.69233e-09 0.0005 1.46608e-07 
