ITEM: TIMESTEP
16400000
ITEM: NUMBER OF ATOMS
125
ITEM: BOX BOUNDS ff ff ff
-0.02 0.43
-0.02 0.06
-0.02 0.07
ITEM: ATOMS id type x y z vx vy vz fx fy fz radius mass 
1 1 0.0198213 0.0220689 0.014762 -0.0208795 0.0143079 -0.0126515 0 0 -1.43822e-06 0.0005 1.46608e-07 
2 1 0.0253538 0.0213985 0.0166197 -0.00455091 0.0421679 -0.00672614 0 0 -1.43822e-06 0.0005 1.46608e-07 
4 1 0.0174174 0.0236578 0.0140397 0.0037057 0.00847387 -0.0165689 0 0 -1.43822e-06 0.0005 1.46608e-07 
5 1 0.0377311 0.0206172 0.0154716 0.00100379 0.00482903 -0.00147042 2.95702e-07 -6.66972e-08 6.00967e-08 0.0005 1.46608e-07 
11 1 0.023259 0.0148757 0.0147298 0.00776955 0.00234233 0.00937473 3.51692e-06 1.17169e-06 2.95699e-06 0.0005 1.46608e-07 
15 1 0.00938048 0.0183393 0.00587271 3.64397e-15 5.40016e-16 -3.69011e-14 -1.05879e-21 -1.94884e-21 0 0.0005 1.46608e-07 
16 1 0.0260148 0.0196703 0.00594114 1.76442e-14 2.84163e-15 -2.87664e-13 -7.94093e-23 -2.93318e-21 0 0.0005 1.46608e-07 
17 1 0.0348412 0.017962 0.00731889 0.00175544 -0.015704 0.0025164 -5.56953e-09 1.71385e-08 1.19244e-08 0.0005 1.46608e-07 
18 1 0.0366849 0.0218066 0.0435188 -9.6879e-317 9.73506e-317 2.68131e-13 0 0 0 0.0005 1.46608e-07 
19 1 0.0210297 0.0156706 0.014387 0.00140317 0.0112543 0.009689 0 0 -1.43822e-06 0.0005 1.46608e-07 
20 1 0.0410978 0.0189566 0.00715534 0.000153722 -0.0216613 -0.000483927 -1.0199e-09 -5.00913e-09 1.08893e-08 0.0005 1.46608e-07 
24 1 0.0329702 0.0157729 0.0142855 0.0017039 0.0113324 0.0145899 -8.42308e-09 -2.88272e-08 -2.88477e-08 0.0005 1.46608e-07 
25 1 0.0208587 0.0230621 0.0134101 -0.00737469 0.0021163 -0.00465597 -1.44272e-07 2.14618e-07 -5.60459e-07 0.0005 1.46608e-07 
27 1 0.000591717 0.0149731 0.0435188 9.71467e-317 9.75789e-317 -8.23806e-13 0 0 0 0.0005 1.46608e-07 
28 1 0.037905 0.0198567 0.0157259 0.0022915 0.00524387 -0.000124161 -9.33011e-07 -5.4129e-07 -2.02176e-09 0.0005 1.46608e-07 
32 1 0.0187688 0.0230852 0.0101661 0.00144587 -0.00645489 -0.0146514 -2.47756e-08 -1.89887e-08 -1.9709e-08 0.0005 1.46608e-07 
33 1 0.0232121 0.0193973 0.00719488 0.0013229 -0.0136948 -0.00086777 -1.18172e-08 -6.0765e-08 3.13216e-08 0.0005 1.46608e-07 
35 1 0.0202098 0.0226793 0.0140675 -0.0180891 0.00779955 -0.0111188 -8.09187e-08 2.01149e-07 -3.50602e-07 0.0005 1.46608e-07 
37 1 0.0360006 0.022398 0.00887984 0.00169564 -0.00756975 -0.0113384 -1.31227e-07 5.44305e-08 -3.29681e-09 0.0005 1.46608e-07 
41 1 0.0179119 0.0220583 0.00854716 -0.00014105 -0.0144698 -0.0170698 -1.99482e-09 -8.87603e-09 6.66924e-09 0.0005 1.46608e-07 
43 1 0.0100356 0.0155081 0.0335037 -0.130526 -0.320785 0.569185 0 0 -1.43822e-06 0.0005 1.46608e-07 
44 1 0.0287174 0.0171878 0.00758548 0.000588761 -0.0149671 0.00673261 -9.03851e-09 -9.78279e-08 7.73007e-08 0.0005 1.46608e-07 
47 1 0.0199384 0.0232666 0.0129196 0.00314058 0.00329529 -0.00659739 -1.6288e-08 -6.01002e-09 -3.35217e-07 0.0005 1.46608e-07 
49 1 0.003617 0.0285782 0.0435188 -9.68849e-317 -9.75601e-317 2.88878e-12 0 0 0 0.0005 1.46608e-07 
52 1 0.0403361 0.015975 0.00852094 0.000296094 -0.0137476 0.0150489 -1.09961e-09 3.10395e-09 1.25648e-08 0.0005 1.46608e-07 
57 1 0.0177376 0.0174598 0.00602215 0.000284542 0.00110771 -0.000567326 -8.12402e-10 -3.16265e-09 1.61978e-09 0.0005 1.46608e-07 
59 1 0.0390431 0.0155448 0.0139527 0.000417771 0.0120428 0.0163247 -1.71034e-09 1.35655e-08 -5.03343e-10 0.0005 1.46608e-07 
62 1 0.0183707 0.023292 0.0107262 0.00310627 0.000140073 -0.00717745 1.11714e-08 7.00761e-09 4.99566e-08 0.0005 1.46608e-07 
63 1 0.0188756 0.0233402 0.0124293 0.00129327 0.0028167 -0.0140687 -2.51923e-09 -3.5731e-09 9.15216e-09 0.0005 1.46608e-07 
65 1 0.037817 0.0202066 0.0156646 0.0029545 0.00673915 -0.001537 -1.69178e-07 -1.32069e-07 -3.33281e-08 0.0005 1.46608e-07 
67 1 0.0379927 0.019371 0.0157073 0.00337851 0.0118621 -0.000873823 -1.54225e-06 -6.24197e-07 5.09772e-07 0.0005 1.46608e-07 
68 1 0.039258 0.0150324 0.013075 0.000733004 0.00732482 0.0179701 -7.24019e-09 1.83625e-08 1.0552e-08 0.0005 1.46608e-07 
71 1 0.0190907 0.0230817 0.0133535 0.000588667 0.00586136 -0.0145096 4.36129e-08 -4.27968e-08 9.56017e-09 0.0005 1.46608e-07 
73 1 0.0222638 0.0149712 0.0132942 0.00500626 0.00372256 0.0131643 4.55635e-07 1.58593e-09 1.43267e-06 0.0005 1.46608e-07 
74 1 0.0298015 0.0218561 0.00819863 0.000137379 -0.0165333 -0.0150465 -1.16736e-07 -1.03901e-07 -1.12238e-07 0.0005 1.46608e-07 
76 1 0.0219266 0.0159659 0.014719 0.00581946 0.00790183 0.00507431 0 0 -1.43822e-06 0.0005 1.46608e-07 
79 1 0.0358035 0.0220441 0.00838179 0.0021773 -0.000873977 -0.00378651 1.35933e-07 -9.26181e-08 7.17405e-08 0.0005 1.46608e-07 
84 1 0.0311103 0.0226683 0.0137251 -0.0011153 0.0133969 -0.0187675 1.49913e-08 -6.85268e-09 1.98264e-08 0.0005 1.46608e-07 
87 1 0.0362478 0.0229863 0.0097698 0.000169188 -0.00875282 -0.0185735 -8.01253e-10 -1.26651e-08 -2.69357e-09 0.0005 1.46608e-07 
88 1 0.0365166 0.0217246 0.00811612 0.00572093 -0.00240011 -0.00122485 3.8285e-07 2.67049e-07 7.63745e-08 0.0005 1.46608e-07 
89 1 0.0398723 0.0148923 0.0104982 0.00094439 -0.00311647 0.017314 -5.93164e-09 5.09139e-09 1.97896e-08 0.0005 1.46608e-07 
90 1 0.0292149 0.0193647 0.00721561 2.64491e-05 -0.0222341 -0.002702 -7.18848e-10 -5.20425e-09 1.06913e-08 0.0005 1.46608e-07 
92 1 0.0356661 0.0216904 0.00803412 0.00462367 0.00110811 -0.00089464 5.8362e-08 1.02584e-07 1.22106e-07 0.0005 1.46608e-07 
97 1 0.019359 0.0159637 0.014616 3.63287e-06 0.0161926 0.0160236 -4.96676e-12 1.2193e-08 -1.23235e-08 0.0005 1.46608e-07 
103 1 0.0335635 0.0147611 0.011686 4.53908e-05 -0.000767907 0.0222507 -9.03275e-10 1.06375e-08 1.67786e-09 0.0005 1.46608e-07 
106 1 0.0193756 0.0239886 0.012542 -0.000631035 0.000743863 -0.00143649 2.5055e-08 -8.48474e-09 -3.69742e-08 0.0005 1.46608e-07 
108 1 0.0214483 0.0168437 0.00645098 -2.38798e-14 5.08809e-14 1.84335e-13 3.56283e-20 2.44581e-20 -1.48231e-21 0.0005 1.46608e-07 
109 1 0.0250241 0.0228107 0.0135655 0.00154929 0.0122447 -0.0190222 6.33673e-09 -7.23397e-09 -1.40296e-08 0.0005 1.46608e-07 
110 1 0.0214151 0.0147329 0.0128226 0.00110252 0.00145078 0.019838 2.60564e-06 -1.33522e-06 2.50789e-06 0.0005 1.46608e-07 
112 1 0.0319383 0.0197949 0.015733 0.000804239 0.0131488 -0.00296588 -1.75415e-07 -1.01723e-06 -7.97855e-08 0.0005 1.46608e-07 
116 1 0.0186427 0.0234508 0.0115719 0.00260908 -0.00116508 -0.0136651 1.07469e-08 6.05375e-10 -3.8268e-09 0.0005 1.46608e-07 
121 1 0.0551527 0.0181697 0.00595147 -1.30016e-14 -1.76717e-14 -2.51655e-13 -6.37657e-20 3.18034e-20 8.47033e-22 0.0005 1.46608e-07 
122 1 0.0416569 0.0213894 0.00787812 0.000199468 -0.0177542 -0.0120394 -8.84689e-10 -1.00434e-08 6.3643e-09 0.0005 1.46608e-07 
124 1 0.0200946 0.0234781 0.0117989 -2.09595e-05 0.000140094 -0.00020994 4.8444e-08 7.78531e-09 -8.4664e-09 0.0005 1.46608e-07 
125 1 0.0413874 0.0200368 0.00728582 0.00044064 -0.0196684 -0.00422372 -4.37405e-09 -1.6378e-08 5.53481e-09 0.0005 1.46608e-07 
126 1 0.0212835 0.0239609 0.0133031 -0.000145701 -0.0003123 -0.000149968 -3.93786e-07 3.64044e-07 2.76228e-07 0.0005 1.46608e-07 
128 1 0.0303903 0.00406748 0.0435188 -9.67556e-317 -9.75879e-317 -3.22607e-12 0 0 0 0.0005 1.46608e-07 
130 1 0.0274684 0.0148278 0.0120678 0.0008188 0.0011693 0.0124243 3.08007e-08 -8.69931e-08 -2.34421e-07 0.0005 1.46608e-07 
131 1 0.0386722 0.0197088 0.0157515 0.0057747 0.0122705 0.00026683 -6.86054e-07 3.77047e-07 -1.6118e-07 0.0005 1.46608e-07 
133 1 0.0215339 0.014723 0.0118301 0.000559235 0.00188472 0.0194256 -2.75016e-07 1.84462e-07 6.20475e-07 0.0005 1.46608e-07 
135 1 0.0401053 0.01537 0.00936875 0.000109951 -0.0120915 0.0190062 -4.17071e-10 7.47983e-09 1.03596e-08 0.0005 1.46608e-07 
137 1 0.0414103 0.0191922 0.00568212 -1.90165e-09 -3.91393e-08 7.00492e-09 2.69261e-11 1.69221e-12 1.38852e-12 0.0005 1.46608e-07 
138 1 0.0203217 0.0241424 0.0130395 0.000492815 0.000950292 -0.000916942 -7.03316e-07 2.35054e-07 5.23229e-08 0.0005 1.46608e-07 
139 1 0.0302265 0.0229877 0.00962225 0.000146075 -0.00848801 -0.0201726 3.92552e-10 -1.22726e-08 1.53016e-10 0.0005 1.46608e-07 
141 1 0.0277077 0.0147592 0.0112068 0.00054072 -0.00161558 0.0201485 1.71831e-07 3.01274e-07 2.71233e-07 0.0005 1.46608e-07 
142 1 0.0421452 0.0227285 0.00929799 0.000192186 -0.0100895 -0.0195951 1.05866e-09 -9.29217e-09 4.53695e-09 0.0005 1.46608e-07 
143 1 0.0338676 0.0149276 0.0105455 0.00188681 -0.00214871 0.0145806 -4.50128e-09 1.00675e-08 -2.99226e-08 0.0005 1.46608e-07 
147 1 0.0314196 0.0219831 0.014692 0.00192383 0.011126 -0.00907912 6.66974e-09 -2.75153e-08 4.31365e-10 0.0005 1.46608e-07 
149 1 0.0570019 0.0175547 0.00590579 4.39831e-15 1.1883e-14 2.80767e-13 1.45683e-20 -1.75098e-20 4.23516e-22 0.0005 1.46608e-07 
150 1 0.0203971 0.0143293 0.0138805 -0.00134877 0.000397277 -0.00200347 1.80571e-07 4.65805e-07 -6.419e-07 0.0005 1.46608e-07 
151 1 0.0180096 0.0140648 0.0131286 5.98071e-05 -0.000414651 0.00115557 1.00778e-07 -1.20625e-08 -1.59284e-07 0.0005 1.46608e-07 
157 1 0.0212238 0.0148863 0.0137919 -0.000723005 0.00237681 0.0198781 -2.18535e-06 4.96171e-07 2.66806e-06 0.0005 1.46608e-07 
158 1 0.020084 0.0201843 0.0061153 5.51598e-15 -2.47836e-15 5.04898e-14 1.03497e-20 1.91906e-20 -4.23516e-22 0.0005 1.46608e-07 
160 1 0.0385006 0.017545 0.0154968 0.000312642 0.0193667 0.00678759 -1.4677e-09 9.90914e-09 -7.39738e-09 0.0005 1.46608e-07 
161 1 0.0221348 0.00230077 0.0435188 9.74157e-317 -9.69799e-317 9.23294e-13 0 0 0 0.0005 1.46608e-07 
165 1 0.0376413 0.0196672 0.00594623 0.294422 0.00854195 -0.0317848 0 0 -1.43822e-06 0.0005 1.46608e-07 
166 1 0.0323965 0.0179415 0.0156353 0.00140808 0.0155544 0.003504 -6.06188e-09 4.3856e-08 -2.1663e-09 0.0005 1.46608e-07 
167 1 0.0173034 0.0240417 0.0130702 0.000167558 -0.0016303 -0.000165752 7.01266e-08 3.31423e-07 -1.01804e-07 0.0005 1.46608e-07 
170 1 0.0226957 0.015543 0.0142393 0.00119876 0.00191991 0.00432854 -4.12655e-08 -3.33667e-07 -3.82376e-07 0.0005 1.46608e-07 
171 1 0.0193084 0.0233753 0.0110293 0.00147942 -0.00242617 -0.0167815 -1.30472e-08 -6.09776e-09 -1.3641e-08 0.0005 1.46608e-07 
173 1 0.0465026 0.0201103 0.00581477 1.06338e-14 -2.29374e-14 -2.37918e-13 2.60463e-20 1.24143e-20 -2.11758e-22 0.0005 1.46608e-07 
174 1 0.0172983 0.014638 0.0120366 0.000455669 -0.000520881 0.00111485 8.86833e-09 -1.21371e-08 2.76865e-08 0.0005 1.46608e-07 
179 1 0.067984 0.0193424 0.00575613 3.90782e-15 7.52503e-15 2.61625e-13 2.33894e-20 -1.00056e-20 0 0.0005 1.46608e-07 
185 1 0.0355256 0.0209701 0.00772938 0.00518871 0.0115076 0.00334423 2.63744e-08 1.46115e-07 2.1994e-07 0.0005 1.46608e-07 
186 1 0.0332676 0.0150378 0.0129571 0.000580406 0.00569401 0.01365 -6.27802e-09 5.15864e-08 7.18846e-08 0.0005 1.46608e-07 
187 1 0.0321434 0.0189836 0.0158232 0.00151059 0.0151617 0.00124092 2.65263e-07 -2.62318e-08 -3.01553e-07 0.0005 1.46608e-07 
191 1 0.0199477 0.0202777 0.0157788 0.015608 0.0583802 -0.0208002 0 0 -1.43822e-06 0.0005 1.46608e-07 
193 1 0.0245476 0.0198163 0.00585259 2.60849e-15 4.19878e-16 -4.25291e-14 1.23084e-21 -3.95227e-21 0 0.0005 1.46608e-07 
194 1 0.031677 0.0209851 0.0152818 2.14027e-05 0.0194903 -0.00939246 5.73846e-10 -1.45024e-09 -1.18766e-08 0.0005 1.46608e-07 
197 1 0.0340272 0.0151334 0.00971863 0.00157296 -0.00596522 0.0100444 4.25178e-09 3.80538e-08 -1.37831e-07 0.0005 1.46608e-07 
200 1 0.0234297 0.0201529 0.00751679 -0.00132907 -0.0206888 -0.00817258 2.26527e-09 1.08947e-08 -1.70376e-09 0.0005 1.46608e-07 
205 1 0.0344212 0.0161075 0.00832809 0.00160392 -0.0096101 0.00879169 1.08691e-09 6.34405e-08 -3.94353e-08 0.0005 1.46608e-07 
206 1 0.0209363 0.0206664 0.0156957 0.0695278 0.135414 -0.132089 0 0 -1.43822e-06 0.0005 1.46608e-07 
215 1 0.026935 0.0188837 0.00598981 1.43031e-14 2.30451e-15 -2.33189e-13 2.51463e-22 -1.49058e-21 0 0.0005 1.46608e-07 
225 1 0.0239466 0.0222944 0.00881772 0.00158375 -0.011926 -0.0127408 -7.52378e-09 -2.38523e-08 -1.21868e-08 0.0005 1.46608e-07 
226 1 0.0395798 0.0147953 0.0115899 0.000166965 0.00021066 0.021409 -1.29518e-09 1.09814e-08 4.39161e-09 0.0005 1.46608e-07 
227 1 0.028122 0.0153652 0.00926348 0.000328909 -0.00979725 0.0173569 -1.48696e-09 5.1954e-09 1.2812e-08 0.0005 1.46608e-07 
229 1 0.0369653 0.0231692 0.0127878 0.000170186 0.0068499 -0.0205498 -2.23643e-09 -6.2437e-09 -1.13489e-08 0.0005 1.46608e-07 
232 1 0.0221996 0.00109062 0.0435188 9.58743e-317 9.68145e-317 4.97437e-14 0 0 0 0.0005 1.46608e-07 
235 1 0.0225838 0.0165613 0.0151861 3.63779e-05 -0.00483441 -0.00525114 -4.68453e-10 -1.77429e-07 -9.89306e-08 0.0005 1.46608e-07 
237 1 0.0365575 0.0233794 0.0112123 0.000951258 -0.000632459 -0.0208067 2.27803e-09 -9.28192e-09 -1.55415e-09 0.0005 1.46608e-07 
241 1 0.0284952 0.0163358 0.00815865 0.000222806 -0.0164163 0.013173 -1.50939e-10 1.50614e-09 1.13914e-08 0.0005 1.46608e-07 
242 1 0.0271162 0.0153902 0.0137315 0.000100795 0.0103752 0.0201885 1.58968e-09 1.19343e-08 -4.59874e-09 0.0005 1.46608e-07 
247 1 0.0408875 0.018045 0.00730634 0.000217116 -0.0197003 0.00516999 -9.45388e-10 -4.53e-09 1.20772e-08 0.0005 1.46608e-07 
252 1 0.0220584 0.0152077 0.0095706 0.000687871 -0.00821519 0.0165179 -1.59238e-09 2.99901e-09 1.22951e-08 0.0005 1.46608e-07 
253 1 0.0895649 0.0187731 0.00575225 -1.31278e-14 1.90144e-14 2.5377e-13 1.43202e-20 1.36319e-21 4.23516e-22 0.0005 1.46608e-07 
256 1 0.0259567 0.0195851 0.0157704 0.00195888 0.0177634 -0.0047649 2.82412e-07 -9.66655e-08 -2.11181e-07 0.0005 1.46608e-07 
257 1 0.0257342 0.0203977 0.015844 0.00168513 0.00594883 -0.00839861 1.23196e-06 -2.50747e-06 -2.91681e-06 0.0005 1.46608e-07 
258 1 0.0353351 0.0199483 0.00745371 2.28557e-06 -0.0211224 -0.00496993 -1.67323e-10 -5.34677e-09 9.2461e-09 0.0005 1.46608e-07 
260 1 0.108836 0.0200055 0.00584234 7.53171e-16 -1.26238e-15 -6.97776e-15 0 0 0 0.0005 1.46608e-07 
268 1 0.0165759 0.0147653 0.0127162 0.000585678 -0.00124451 0.00138573 1.58051e-09 -1.15321e-08 1.84904e-08 0.0005 1.46608e-07 
269 1 0.0289387 0.0183593 0.00727751 -0.000701469 -0.0229798 0.00329229 5.06052e-09 1.75962e-08 -2.46246e-08 0.0005 1.46608e-07 
270 1 0.0265853 0.0168987 0.0151922 -7.8522e-05 0.0165072 0.00952481 5.27134e-08 -1.52758e-07 -8.16272e-08 0.0005 1.46608e-07 
271 1 0.0308524 0.0233095 0.0123257 0.00131671 0.00277587 -0.0183627 8.58072e-08 2.24814e-08 3.68185e-07 0.0005 1.46608e-07 
272 1 0.0224824 0.0145658 0.0141816 0.00722589 -0.00131589 0.0115786 1.34311e-06 -9.80118e-07 1.05849e-06 0.0005 1.46608e-07 
274 1 0.0188259 0.0242738 0.0133271 -0.0121137 -0.00428007 -0.00714098 -2.36907e-07 3.09577e-07 -1.00838e-07 0.0005 1.46608e-07 
275 1 0.0268372 0.0160474 0.0145775 0.00155199 0.0136883 0.0124809 -9.45273e-09 -3.91716e-08 -8.72006e-09 0.0005 1.46608e-07 
277 1 0.0186054 0.023694 0.014112 -0.080551 -0.00762066 -0.0287677 0 0 -1.43822e-06 0.0005 1.46608e-07 
282 1 0.0217683 0.0147623 0.0109496 0.000410124 -0.00363484 0.0210201 1.53809e-07 2.94862e-08 -1.18165e-07 0.0005 1.46608e-07 
284 1 0.00937694 0.00505359 0.0435188 -9.68799e-317 -9.69932e-317 9.23294e-13 0 0 0 0.0005 1.46608e-07 
288 1 0.0212914 0.0139346 0.0140911 -0.00382094 -0.00292948 0.00114021 -1.88471e-08 -2.26769e-07 7.09489e-08 0.0005 1.46608e-07 
291 1 0.019993 0.0140122 0.0130226 -0.000634913 0.000908917 -0.00243704 -7.79048e-08 9.67371e-09 -9.18937e-08 0.0005 1.46608e-07 
294 1 0.0189946 0.0140014 0.0129682 -0.000643064 0.00288075 -0.00479651 2.45317e-08 3.14677e-07 -5.28979e-07 0.0005 1.46608e-07 
299 1 0.0254808 0.018723 0.00589902 -2.07801e-14 -3.32947e-15 3.38791e-13 -4.89691e-22 -3.09035e-21 0 0.0005 1.46608e-07 
300 1 0.0326732 0.0166286 0.0150531 0.00091358 0.014164 0.00959411 6.13248e-10 6.72406e-09 -6.42055e-09 0.0005 1.46608e-07 
