ITEM: TIMESTEP
3200000
ITEM: NUMBER OF ATOMS
278
ITEM: BOX BOUNDS ff ff ff
-0.02 0.43
-0.02 0.06
-0.02 0.07
ITEM: ATOMS id type x y z vx vy vz fx fy fz radius mass 
1 1 0.0234845 0.0185884 0.0167153 0.0128551 0.0135644 0.000865987 0 0 -1.43822e-06 0.0005 1.46608e-07 
2 1 0.0175107 0.0232028 0.0147159 0.0164565 0.00466971 -0.011543 0 0 -1.43822e-06 0.0005 1.46608e-07 
3 1 0.0258623 0.0194206 0.0167751 0.000672939 0.00107622 -0.00333316 -2.37463e-08 9.00982e-07 2.3642e-07 0.0005 1.46608e-07 
4 1 0.020155 0.0231694 0.0147757 0.00379326 0.00245059 0.00493683 -7.8277e-06 2.43125e-06 2.54968e-05 0.0005 1.46608e-07 
5 1 0.0218157 0.0180678 0.0162778 0.04683 0.0145194 0.0345151 4.10825e-06 1.87417e-05 8.85656e-06 0.0005 1.46608e-07 
6 1 0.0213433 0.0160901 0.0150025 0.000424069 0.0168206 0.0155491 2.42984e-07 5.38621e-08 -6.26959e-07 0.0005 1.46608e-07 
7 1 0.0218752 0.0148389 0.0129474 0.00425078 0.00163368 0.00126829 -4.9665e-07 2.41349e-07 -1.25465e-06 0.0005 1.46608e-07 
9 1 0.0222291 0.0164978 0.0151529 0.00182316 0.0165197 0.0114319 -6.08399e-07 1.21646e-06 4.53358e-07 0.0005 1.46608e-07 
10 1 0.0239845 0.020622 0.00761255 0.0105698 -0.0144254 -0.0194749 -0.0407327 0.0325966 -0.0927279 0.0005 1.46608e-07 
11 1 0.0203835 0.0205841 0.0162912 0.00750895 0.0169883 0.0219743 -6.16845e-07 -3.7758e-07 -1.09496e-06 0.0005 1.46608e-07 
12 1 0.0176904 0.0210447 0.0172679 -0.00374316 0.00591143 -0.000211831 3.3076e-07 3.41281e-07 -1.26724e-06 0.0005 1.46608e-07 
13 1 0.0177567 0.0240722 0.01277 -0.000807142 0.000238022 -0.000882653 -8.85438e-07 -1.27124e-06 4.6373e-06 0.0005 1.46608e-07 
14 1 0.0151758 0.0167777 0.0155067 0.00367783 0.00496557 0.00277117 1.42733e-07 -5.54223e-07 -1.50245e-06 0.0005 1.46608e-07 
15 1 0.00938048 0.0183393 0.00587271 3.64553e-15 5.36895e-16 -3.6901e-14 -3.44107e-22 1.3493e-20 2.11758e-22 0.0005 1.46608e-07 
16 1 0.0235989 0.0202975 0.0165921 0.00105689 0.00552077 -0.0010601 -2.95004e-07 3.56403e-06 1.6762e-06 0.0005 1.46608e-07 
17 1 0.0217435 0.023235 0.0146112 -0.0028622 -0.000262382 0.00353921 3.23335e-06 -4.18833e-06 7.303e-06 0.0005 1.46608e-07 
18 1 0.0240601 0.0194227 0.016741 0.0145223 0.0105569 -9.60737e-05 4.57843e-06 -2.61809e-06 -4.73525e-07 0.0005 1.46608e-07 
19 1 0.0189089 0.0240886 0.0126254 -0.00148604 0.00493123 -0.00499481 1.34332e-06 -1.00081e-06 2.04572e-06 0.0005 1.46608e-07 
20 1 0.0269688 0.0175563 0.0154451 0.000236342 0.020477 0.00940414 -3.989e-09 7.59557e-09 -8.38557e-09 0.0005 1.46608e-07 
21 1 0.0227919 0.0221876 0.0156863 -0.00660645 -0.0048836 0.00367631 -2.85955e-06 -5.28981e-07 -5.24002e-06 0.0005 1.46608e-07 
22 1 0.0174302 0.0184174 0.0166936 0.00308795 0.000952046 0.000329465 -3.89044e-08 1.40705e-09 -4.96272e-07 0.0005 1.46608e-07 
23 1 0.0181254 0.0244789 0.0138109 0.000178115 -1.71029e-05 -0.000813451 -3.56497e-07 -8.94626e-07 4.11263e-06 0.0005 1.46608e-07 
24 1 0.0249676 0.0219973 0.016541 0.00361243 0.00508263 -0.00448425 -0.000307427 -0.00021571 0.000119592 0.0005 1.46608e-07 
25 1 0.0139532 0.0213602 0.016848 -0.0016576 0.000621455 -0.00284558 0 0 -1.43822e-06 0.0005 1.46608e-07 
26 1 0.0207563 0.0158869 0.0160896 0.127312 0.0367885 -0.0740936 0 0 -1.43822e-06 0.0005 1.46608e-07 
27 1 0.0172053 0.016422 0.0150961 0.00390686 0.00607827 0.00267841 0 0 -1.43822e-06 0.0005 1.46608e-07 
28 1 0.0235848 0.0189835 0.00720823 0.000276614 -0.0199075 0.000856162 -2.52738e-09 -9.30362e-09 1.22615e-08 0.0005 1.46608e-07 
29 1 0.0150813 0.014802 0.0146656 0.00164012 -0.000703354 -0.00131348 2.7542e-07 -1.48112e-07 -1.05599e-07 0.0005 1.46608e-07 
30 1 0.0210314 0.0234606 0.0152761 0.000181572 -0.00300862 -0.00124387 0 0 -1.43822e-06 0.0005 1.46608e-07 
31 1 0.0192954 0.02445 0.0135937 -0.00104829 -0.00144743 -0.00131452 3.37733e-06 3.83339e-07 6.4272e-07 0.0005 1.46608e-07 
32 1 0.0252591 0.0173593 0.016495 0.00125026 0.0149197 0.00602669 -1.7651e-07 4.25749e-07 3.66031e-08 0.0005 1.46608e-07 
33 1 0.014778 0.0186108 0.0161697 0.00392793 0.00683001 0.000189544 -9.80022e-07 -1.11231e-06 2.82459e-07 0.0005 1.46608e-07 
34 1 0.016891 0.0140464 0.0139019 0.000666237 0.00111434 -0.00343351 1.04264e-07 1.33794e-07 -1.62917e-07 0.0005 1.46608e-07 
35 1 0.0244025 0.0222834 0.00876155 0.00164162 -0.0114886 -0.0113738 -4.94446e-10 -2.41552e-08 -2.74461e-08 0.0005 1.46608e-07 
36 1 0.0199516 0.024071 0.0143989 0.000412868 -0.000215974 -0.000496899 3.35749e-06 -3.33593e-06 1.02244e-05 0.0005 1.46608e-07 
37 1 0.022433 0.0236199 0.0139333 0.000111145 -0.000426647 -0.000229264 1.42535e-06 -1.24596e-06 3.70812e-06 0.0005 1.46608e-07 
38 1 0.0212625 0.0209567 0.0159859 0.00283932 0.00538647 0.0078216 1.94588e-05 -2.46728e-05 -7.06999e-06 0.0005 1.46608e-07 
39 1 0.0198599 0.0155155 0.0154121 1.05706e-05 0.0128836 0.0152641 -5.07923e-07 1.68572e-06 -6.3519e-06 0.0005 1.46608e-07 
40 1 0.0214568 0.0239206 0.0133752 0.000369955 0.000381726 8.00091e-05 3.43727e-06 -1.40006e-06 5.78719e-06 0.0005 1.46608e-07 
41 1 0.0223545 0.018355 0.0170694 0.0554631 0.0266631 0.0237957 1.00587e-05 3.88785e-06 2.43956e-06 0.0005 1.46608e-07 
42 1 0.0171155 0.0193658 0.0167297 0.00124535 0.00130078 0.00195616 -2.72964e-07 7.76347e-07 -7.08335e-07 0.0005 1.46608e-07 
43 1 0.0169364 0.0239733 0.0132994 4.24132e-05 -2.6506e-05 0.000188206 2.03813e-07 -9.60418e-07 2.13779e-06 0.0005 1.46608e-07 
44 1 0.0144853 0.0197464 0.0164944 0.00351428 0.00351252 6.03523e-06 -1.22609e-07 2.90068e-06 -1.36684e-07 0.0005 1.46608e-07 
45 1 0.0224693 0.0237132 0.0150427 -0.000172111 -0.000168299 0.00030907 3.01485e-06 -6.74749e-07 -5.5573e-07 0.0005 1.46608e-07 
46 1 0.0239723 0.0175882 0.0165433 -0.00416925 0.0118351 0.0035539 -6.82052e-08 5.97799e-07 4.39633e-07 0.0005 1.46608e-07 
47 1 0.0155563 0.0199136 0.0167592 -0.00184016 0.00496073 0.00245097 -5.92001e-06 -1.73172e-06 1.30305e-06 0.0005 1.46608e-07 
49 1 0.0171991 0.0148466 0.0149448 -0.0165006 -0.0117378 -0.0161021 0 0 -1.43822e-06 0.0005 1.46608e-07 
50 1 0.0217659 0.0241527 0.014265 0.000260534 -0.000341631 0.000207662 2.23843e-06 -1.51599e-06 3.84846e-06 0.0005 1.46608e-07 
51 1 0.0205612 0.0196087 0.0161589 -0.000761564 0.0205484 -0.00517476 8.8588e-06 5.09205e-06 -3.06863e-05 0.0005 1.46608e-07 
52 1 0.0231326 0.0177265 0.0171298 0.02907 0.00270468 0.0125474 0 0 -1.43822e-06 0.0005 1.46608e-07 
53 1 0.0230454 0.0231503 0.0155882 0.00268655 0.00235175 -0.00269024 -4.22317e-06 -4.75629e-06 6.33332e-06 0.0005 1.46608e-07 
54 1 0.0211047 0.0233312 0.0165137 0.0470026 -0.00568457 0.0290167 0 0 -1.43822e-06 0.0005 1.46608e-07 
57 1 0.0191018 0.0236438 0.0141124 0.000254512 -0.00181897 0.00129001 1.37087e-06 -2.5224e-10 3.76551e-07 0.0005 1.46608e-07 
58 1 0.0234229 0.0181131 0.00731927 0.00012958 -0.0203103 0.00428877 -2.12188e-09 2.23187e-09 1.00363e-08 0.0005 1.46608e-07 
59 1 0.0250038 0.0233563 0.0109134 0.0013943 -0.002978 -0.0163588 -1.37334e-08 -1.83022e-08 -6.23228e-08 0.0005 1.46608e-07 
60 1 0.0179827 0.0170497 0.0163655 0.0023502 0.0187419 0.00760321 -3.9837e-07 9.03895e-08 1.8364e-07 0.0005 1.46608e-07 
61 1 0.0193308 0.0245455 0.0172759 7.09275e-05 0.000721663 0.00161409 3.23682e-08 -4.61493e-07 -1.04955e-06 0.0005 1.46608e-07 
62 1 0.020571 0.0243418 0.0136503 0.00102702 0.00106217 -0.00130021 1.38502e-07 -2.53982e-06 1.04935e-06 0.0005 1.46608e-07 
63 1 0.023914 0.0228172 0.0158562 -0.00037178 0.00114374 -0.000777953 8.89287e-06 -1.47695e-06 2.59891e-07 0.0005 1.46608e-07 
64 1 0.0246763 0.0219726 0.0158011 -0.00207059 0.0102934 -0.00676254 4.65417e-05 1.84227e-05 -1.66991e-05 0.0005 1.46608e-07 
65 1 0.0229018 0.0151689 0.0136764 -0.0204212 -0.0115662 -0.0251084 -9.31549e-08 -9.85598e-08 -6.27141e-08 0.0005 1.46608e-07 
67 1 0.0246406 0.0228705 0.00942761 0.00269744 -0.00351165 -0.008465 7.57406e-08 1.54489e-08 8.07199e-08 0.0005 1.46608e-07 
68 1 0.0253125 0.0233051 0.0123858 0.000809359 0.00404843 -0.0192964 -2.54751e-09 -8.84535e-09 -1.06894e-08 0.0005 1.46608e-07 
69 1 0.0230785 0.0194935 0.0169176 0.0233433 -0.00890037 0.0143921 -5.87206e-06 7.29061e-06 -7.77072e-06 0.0005 1.46608e-07 
70 1 0.0253666 0.0210941 0.0163526 -0.00117713 0.0023913 -0.00108705 -3.33682e-08 1.28482e-06 -4.8931e-07 0.0005 1.46608e-07 
71 1 0.0207043 0.0144821 0.0141692 0.000740097 0.000629144 0.000890523 -2.87633e-07 -2.18246e-08 -1.44089e-06 0.0005 1.46608e-07 
73 1 0.0222861 0.0217011 0.0163994 -0.0037567 0.0161575 0.0211138 0 0 -1.43822e-06 0.0005 1.46608e-07 
74 1 0.0199255 0.0240976 0.012863 0.00173569 0.0012954 -0.00110063 2.20972e-06 -6.13213e-07 2.3728e-06 0.0005 1.46608e-07 
75 1 0.0186086 0.0218418 0.0159646 -0.00327926 0.0171189 -0.00803727 0 0 -1.43822e-06 0.0005 1.46608e-07 
76 1 0.0157385 0.0157979 0.0162689 0.0119103 -0.00239422 -0.00456901 1.0518e-07 -9.77086e-08 -1.90139e-07 0.0005 1.46608e-07 
78 1 0.0207626 0.0237805 0.0124398 0.00143292 0.000346311 -0.000553535 3.87215e-06 -4.60687e-06 2.04214e-06 0.0005 1.46608e-07 
79 1 0.0179976 0.0139363 0.0134843 0.0025057 0.00188563 -0.0067081 1.36402e-08 5.74099e-07 -7.73556e-07 0.0005 1.46608e-07 
80 1 0.0196621 0.0232592 0.0104838 0.000471575 -0.00123551 -0.00927349 -3.92285e-07 3.03828e-07 1.29159e-06 0.0005 1.46608e-07 
81 1 0.0172103 0.0143066 0.0129908 0.000989702 0.000974086 -0.00336246 7.76382e-08 -3.86366e-07 6.24272e-09 0.0005 1.46608e-07 
82 1 0.0166452 0.0237362 0.015012 -0.00141681 0.000250821 -0.000277006 -8.26701e-06 2.20526e-06 1.43217e-05 0.0005 1.46608e-07 
83 1 0.0142921 0.0152044 0.0151336 0.00195135 -0.00192946 0.000802259 1.96483e-08 -2.09811e-08 1.13337e-08 0.0005 1.46608e-07 
84 1 0.0189605 0.0141032 0.016209 -0.0137935 -0.00461183 -0.0150379 0 0 -1.43822e-06 0.0005 1.46608e-07 
85 1 0.0209584 0.0174669 0.016378 0.00775 0.0194514 0.0120464 3.11967e-06 -6.131e-06 -2.78349e-06 0.0005 1.46608e-07 
86 1 0.016362 0.0193665 0.0160157 0.0148843 0.00336967 -0.0457486 0 0 -1.43822e-06 0.0005 1.46608e-07 
87 1 0.0211514 0.0168677 0.0156012 0.000954663 0.0208727 0.0100576 6.58528e-06 -2.72401e-06 -4.35172e-06 0.0005 1.46608e-07 
88 1 0.0257591 0.0223565 0.0141099 -2.84157e-06 0.0141829 -0.0166574 -3.75766e-10 -6.94001e-09 -9.72079e-09 0.0005 1.46608e-07 
89 1 0.0262472 0.0207587 0.0154647 0.00157955 0.0124795 -0.00530017 -1.94474e-09 -1.72174e-08 9.01504e-09 0.0005 1.46608e-07 
90 1 0.0188725 0.0230976 0.0149177 -0.00044159 -0.000767028 0.00137858 -2.64198e-06 -8.59178e-07 4.32058e-06 0.0005 1.46608e-07 
91 1 0.0201471 0.0234945 0.0135922 0.0017005 0.00409362 -0.00380523 1.83085e-06 -4.68673e-06 7.90611e-06 0.0005 1.46608e-07 
92 1 0.0216198 0.0190418 0.0163742 0.00986487 0.012639 0.0226781 -9.63835e-06 2.72455e-06 -1.76383e-05 0.0005 1.46608e-07 
93 1 0.0148206 0.0228443 0.0181601 0.000536553 -0.000604417 -0.00109966 0 0 -1.43822e-06 0.0005 1.46608e-07 
95 1 0.0237882 0.0217211 0.0169352 -0.000489553 6.54165e-05 -0.00641374 1.38671e-06 9.28554e-07 -9.47459e-07 0.0005 1.46608e-07 
96 1 0.0230682 0.0168121 0.00779309 0.00127899 -0.0159102 0.00982015 -2.1897e-09 -1.36533e-09 9.93045e-09 0.0005 1.46608e-07 
97 1 0.0170293 0.0242173 0.0142433 0.000266513 -0.000418019 0.0006998 -3.43158e-06 -9.14218e-08 1.70269e-06 0.0005 1.46608e-07 
98 1 0.0160829 0.0228188 0.0164293 -0.000732536 0.00454685 -0.000247847 -9.5065e-07 5.41934e-07 -1.02307e-06 0.0005 1.46608e-07 
99 1 0.0177532 0.014656 0.0141343 0.00401441 0.00153305 -0.00537923 -3.63453e-08 -2.40476e-07 -7.7352e-07 0.0005 1.46608e-07 
100 1 0.0246683 0.0205324 0.00761882 0.000126386 -0.01723 -0.015895 0.000558295 0.000321812 -0.00188753 0.0005 1.46608e-07 
101 1 0.0168406 0.0213495 0.0162106 0.00249979 -0.00317635 0.00222167 -7.97036e-08 1.6255e-06 -4.14239e-07 0.0005 1.46608e-07 
102 1 0.0231091 0.0232946 0.0145094 -0.000192059 -0.000273426 -0.000567268 1.44989e-06 8.02398e-07 -2.08742e-06 0.0005 1.46608e-07 
103 1 0.0193509 0.0226904 0.00931039 9.88758e-05 -0.0110234 -0.0183228 -1.52212e-08 -1.1282e-08 -1.43485e-09 0.0005 1.46608e-07 
104 1 0.0220626 0.0172095 0.0158324 0.00820129 0.00492395 0.0248267 -1.03098e-05 1.46991e-05 -3.99717e-06 0.0005 1.46608e-07 
105 1 0.0221663 0.014751 0.011209 -2.73053e-05 -0.00467264 0.0202816 -1.96001e-08 1.58538e-08 -7.94519e-08 0.0005 1.46608e-07 
106 1 0.0193403 0.0235369 0.0173967 -0.00774808 0.00127133 0.0274065 0 0 -1.43822e-06 0.0005 1.46608e-07 
108 1 0.0203993 0.0187271 0.00600944 -6.31669e-15 2.76236e-15 -5.78039e-14 -4.73809e-20 9.2406e-20 1.24937e-20 0.0005 1.46608e-07 
109 1 0.0212245 0.0225547 0.0158666 -0.00955194 0.00305576 0.00952941 0 0 -1.43822e-06 0.0005 1.46608e-07 
110 1 0.0201636 0.0178936 0.0168086 0.00522605 0.0141566 0.0133759 1.94844e-06 -1.66753e-06 1.5063e-06 0.0005 1.46608e-07 
111 1 0.01887 0.0156824 0.0155305 -0.00205299 0.0136414 0.0127265 1.37926e-06 1.29761e-06 3.03067e-06 0.0005 1.46608e-07 
112 1 0.0201103 0.0234722 0.0117322 0.00125167 -0.00026601 -0.00381576 1.47479e-05 1.25355e-05 3.49519e-05 0.0005 1.46608e-07 
113 1 0.0208012 0.0185456 0.0159174 0.000883174 0.0156923 0.0158481 0 0 -1.43822e-06 0.0005 1.46608e-07 
114 1 0.0175716 0.0240562 0.0166421 0.00105503 -0.000271663 0.00212506 3.74966e-06 4.45297e-07 -2.88212e-06 0.0005 1.46608e-07 
115 1 0.0185493 0.021362 0.00785019 -0.000373437 -0.0166263 -0.0094073 6.2573e-09 1.8233e-07 7.85364e-08 0.0005 1.46608e-07 
116 1 0.0205743 0.0211234 0.0171524 0.00481069 0.0143285 0.0289349 0 0 -1.43822e-06 0.0005 1.46608e-07 
117 1 0.0191947 0.0234654 0.0117783 0.00223945 0.000935923 -0.0102781 9.23985e-06 -5.17021e-06 1.51848e-05 0.0005 1.46608e-07 
118 1 0.0202982 0.0229339 0.0158862 -0.024366 0.0139028 0.017045 0 0 -1.43822e-06 0.0005 1.46608e-07 
121 1 0.0230943 0.0169097 0.0153883 0.000639701 0.0184721 0.0100296 3.89881e-10 1.04009e-06 8.18595e-07 0.0005 1.46608e-07 
122 1 0.0274487 0.0156543 0.0141781 0.0776369 1.0874 -0.50385 -0.00320977 -0.0111857 0.026773 0.0005 1.46608e-07 
124 1 0.0219778 0.0153756 0.0140103 -0.00404099 -0.00268645 0.000577674 0 0 -1.43822e-06 0.0005 1.46608e-07 
125 1 0.0272407 0.0161607 0.0146627 0.0257215 0.0176024 -0.0937112 -0.0019728 0.00826054 0.00446233 0.0005 1.46608e-07 
126 1 0.0160892 0.0167338 0.0163016 0.0032181 0.000396209 0.00203035 -9.21305e-08 -3.83706e-07 1.07081e-07 0.0005 1.46608e-07 
127 1 0.0175504 0.0156995 0.0156959 0.01567 -0.0144678 -0.030769 0 0 -1.43822e-06 0.0005 1.46608e-07 
128 1 0.0212848 0.0218571 0.017403 0.0200738 0.00285481 0.0191597 0 0 -1.43822e-06 0.0005 1.46608e-07 
129 1 0.0161547 0.0167527 0.015304 0.00416224 0.00340853 0.00258375 -9.64915e-08 6.37537e-07 -5.34116e-07 0.0005 1.46608e-07 
130 1 0.015253 0.0194555 0.0159239 0.0034931 0.00607274 -0.00140124 1.75471e-06 -3.78259e-06 -2.39853e-06 0.0005 1.46608e-07 
131 1 0.0158623 0.0208576 0.0164935 -0.00220638 0.00314241 0.000556528 -3.45133e-06 -1.05577e-06 -1.12143e-06 0.0005 1.46608e-07 
132 1 0.0181073 0.022633 0.0153627 -0.00153443 0.00192026 -0.00092066 -6.09034e-07 -2.29297e-06 1.96231e-06 0.0005 1.46608e-07 
133 1 0.0247075 0.0178531 0.0171672 -0.00451964 0.0118529 0.00366662 7.20347e-07 3.07769e-07 2.40777e-07 0.0005 1.46608e-07 
134 1 0.0222452 0.0208213 0.0159234 0.00329097 -0.00222407 0.0114362 1.22473e-05 3.41407e-05 -8.54827e-06 0.0005 1.46608e-07 
135 1 0.0266718 0.0187254 0.0158223 0.00108989 0.0180527 0.000686036 -8.15866e-09 2.00253e-08 -1.08422e-08 0.0005 1.46608e-07 
136 1 0.0160509 0.0240778 0.0179697 0.0134275 -0.0148738 -0.0425154 3.05147e-07 -2.54997e-07 -8.47718e-07 0.0005 1.46608e-07 
137 1 0.01828 0.0157974 0.0163837 0.0148107 -0.00435632 -0.0178435 0 0 -1.43822e-06 0.0005 1.46608e-07 
138 1 0.0200582 0.0193503 0.0169878 0.010026 0.0189721 -0.0193931 0 0 -1.43822e-06 0.0005 1.46608e-07 
139 1 0.0144789 0.0229921 0.0156726 0.00596903 0.00542006 -0.00432504 3.03835e-05 -3.91966e-06 -2.59541e-06 0.0005 1.46608e-07 
141 1 0.0258354 0.0204108 0.0169133 -8.9146e-05 0.00024183 -0.000234213 2.81203e-07 2.42152e-07 -4.03229e-08 0.0005 1.46608e-07 
142 1 0.0277528 0.015097 0.0130749 0.000137843 0.00758934 0.0204928 -7.25112e-10 1.23922e-08 4.59343e-10 0.0005 1.46608e-07 
143 1 0.0236401 0.0188532 0.0177068 0.0347944 -0.0394106 0.0224164 0 0 -1.43822e-06 0.0005 1.46608e-07 
144 1 0.0225886 0.0205686 0.0169824 0.00571716 -0.000588805 0.0490656 0 0 -1.43822e-06 0.0005 1.46608e-07 
145 1 0.0176476 0.023702 0.0138358 0.000361727 -0.000177382 0.000507696 -1.66254e-06 -3.546e-06 8.65706e-06 0.0005 1.46608e-07 
146 1 0.020182 0.0214348 0.0158056 -0.0013659 0.00927036 0.00594393 4.06213e-06 3.09902e-06 -2.76891e-06 0.0005 1.46608e-07 
147 1 0.019834 0.014001 0.0129722 -0.000138706 -0.000503672 0.000814601 -1.48605e-10 -8.20703e-09 7.8484e-07 0.0005 1.46608e-07 
148 1 0.017477 0.0220368 0.0158595 -0.00240938 0.00394282 -0.00110529 -6.49055e-07 -1.76975e-07 1.68866e-06 0.0005 1.46608e-07 
149 1 0.0160285 0.0215032 0.0152226 0.00221041 0.00126056 0.00112849 -9.65198e-07 8.21044e-07 -3.11425e-06 0.0005 1.46608e-07 
150 1 0.0197241 0.0147096 0.014462 -0.0138064 -0.00453554 -0.0112582 7.34794e-08 -4.35802e-07 -6.33314e-07 0.0005 1.46608e-07 
151 1 0.0183159 0.0244641 0.0173442 -0.00299439 -0.00114054 -0.000480261 1.67721e-07 -1.61692e-07 -1.33908e-06 0.0005 1.46608e-07 
152 1 0.0187342 0.0229509 0.00984227 0.00144355 -0.00754998 -0.0160563 1.33697e-08 1.09176e-08 4.25839e-08 0.0005 1.46608e-07 
153 1 0.0183516 0.0239298 0.0146952 -0.000343964 -0.000577698 0.000550806 -9.32768e-07 -6.20505e-07 4.74362e-07 0.0005 1.46608e-07 
154 1 0.0136088 0.0204414 0.0165998 -1.04984e-05 0.0239055 -0.00658754 -8.08626e-09 -1.9097e-07 2.92856e-08 0.0005 1.46608e-07 
155 1 0.0159871 0.023194 0.0155031 -0.00236849 0.000898302 -0.000714681 -3.53398e-06 4.604e-06 3.70971e-06 0.0005 1.46608e-07 
156 1 0.0184086 0.0186304 0.0167286 -0.00510985 0.00778884 0.000400662 5.64528e-06 -4.22195e-06 -1.86628e-06 0.0005 1.46608e-07 
157 1 0.016205 0.0236747 0.0139576 0.00699154 0.00244706 -0.00555886 -7.29975e-09 3.46868e-09 1.79276e-08 0.0005 1.46608e-07 
158 1 0.0190558 0.0237843 0.015621 0.00262614 0.000280789 -0.00050062 1.57075e-07 4.98269e-07 9.59569e-07 0.0005 1.46608e-07 
159 1 0.0151329 0.0213628 0.0159997 0.000316135 0.00218502 0.000112323 -1.66722e-06 -1.51899e-06 1.53782e-05 0.0005 1.46608e-07 
160 1 0.021239 0.014924 0.0162868 0.0686236 0.096788 -0.0945336 0 0 -1.43822e-06 0.0005 1.46608e-07 
161 1 0.0172881 0.0146356 0.0120497 0.0013714 0.000920873 -0.00334177 -7.35822e-08 -5.16197e-08 -6.75587e-08 0.0005 1.46608e-07 
162 1 0.0248886 0.020239 0.0166412 -0.00253041 0.0233846 -0.00550941 3.48542e-07 5.39963e-07 -3.29625e-08 0.0005 1.46608e-07 
163 1 0.0208705 0.0218032 0.0164689 0.00661329 0.00584248 0.00947534 0 0 -1.43822e-06 0.0005 1.46608e-07 
164 1 0.0185107 0.0231581 0.016183 -0.000860397 0.0124582 0.00785326 -3.40972e-06 3.43443e-06 -2.15456e-06 0.0005 1.46608e-07 
165 1 0.0199707 0.0222729 0.0151743 0.00103782 0.010182 0.0186889 5.68353e-08 1.66872e-06 1.36279e-05 0.0005 1.46608e-07 
166 1 0.0236948 0.0218444 0.0159469 -0.00292112 0.00516549 -0.00160405 1.6543e-07 2.1126e-06 -2.43352e-07 0.0005 1.46608e-07 
167 1 0.0198942 0.0221745 0.0164215 0.00485178 -0.00255562 0.0212944 0 0 -1.43822e-06 0.0005 1.46608e-07 
168 1 0.024134 0.0224924 0.0152836 -0.000736176 0.00206745 -0.000977252 1.40932e-05 1.10188e-06 5.02389e-06 0.0005 1.46608e-07 
169 1 0.0152471 0.0222742 0.016359 0.000920087 0.000615997 0.00106866 4.17445e-06 4.4793e-06 8.96963e-07 0.0005 1.46608e-07 
170 1 0.0189601 0.0233217 0.010897 0.000924465 -0.00292407 -0.0129065 1.23955e-07 9.6374e-07 6.65355e-06 0.0005 1.46608e-07 
171 1 0.0195311 0.0232863 0.0164476 -0.0035037 0.00106051 0.0270995 0 0 -1.43822e-06 0.0005 1.46608e-07 
173 1 0.020772 0.0223304 0.0146498 -0.000841216 0.00181494 0.00828808 6.43433e-06 1.8113e-05 2.04673e-05 0.0005 1.46608e-07 
174 1 0.0185311 0.0224397 0.00903755 4.5641e-05 -0.0120594 -0.017826 -2.0962e-09 -1.18742e-08 4.99825e-09 0.0005 1.46608e-07 
175 1 0.0183837 0.0239033 0.0132944 -0.000122882 0.000898066 -0.00479111 6.67917e-07 -2.54176e-06 9.58586e-06 0.0005 1.46608e-07 
176 1 0.0166644 0.0236577 0.0163968 0.00558317 0.00235331 0.00667003 6.53092e-06 -1.31583e-05 -8.72192e-07 0.0005 1.46608e-07 
177 1 0.0147284 0.0200311 0.0174216 0.00352674 -5.99547e-05 0.000959997 4.37667e-07 8.61866e-07 5.5004e-08 0.0005 1.46608e-07 
178 1 0.0160637 0.0176585 0.015718 0.00127284 0.00484096 0.00168763 5.57268e-07 -3.77196e-08 -8.90726e-07 0.0005 1.46608e-07 
179 1 0.0188351 0.0140232 0.012932 0.000348246 -6.79775e-06 -0.00015855 -1.03819e-06 2.48835e-08 -1.78849e-07 0.0005 1.46608e-07 
180 1 0.0214598 0.0200175 0.0162363 0.0026551 0.00775758 0.0155977 2.5142e-05 -2.35637e-05 -2.85125e-06 0.0005 1.46608e-07 
181 1 0.0214901 0.01437 0.0147774 -0.00148787 -0.00467356 0.00615491 2.25804e-07 -2.55669e-07 -9.08267e-07 0.0005 1.46608e-07 
182 1 0.0152464 0.0226918 0.0172674 0.000418212 -5.5429e-05 -0.000895844 -2.28621e-06 4.67147e-07 6.1677e-06 0.0005 1.46608e-07 
183 1 0.0149845 0.0177305 0.0157424 0.00390117 0.00568809 0.00150605 -3.61462e-07 4.6577e-07 -3.17321e-08 0.0005 1.46608e-07 
184 1 0.0170379 0.0230486 0.0156961 0.022404 -0.0197545 -0.0127416 0 0 -1.43822e-06 0.0005 1.46608e-07 
185 1 0.0209378 0.0231629 0.0131218 0.000391905 0.00207088 -0.000623878 -1.49992e-07 -2.53448e-06 7.98804e-06 0.0005 1.46608e-07 
186 1 0.0205869 0.0148655 0.0150958 0.00658911 0.0203889 -0.0181995 0 0 -1.43822e-06 0.0005 1.46608e-07 
187 1 0.0184845 0.0224213 0.0177234 0.018568 -0.0204212 -0.0395244 0 0 -1.43822e-06 0.0005 1.46608e-07 
189 1 0.0194333 0.0233 0.0127028 0.00133207 0.004276 -0.0134787 -3.5231e-08 -6.33651e-06 5.52128e-06 0.0005 1.46608e-07 
190 1 0.0154349 0.0153166 0.0154467 0.00639983 -0.00177686 -0.00293678 -1.99103e-07 2.7893e-08 -9.14115e-07 0.0005 1.46608e-07 
191 1 0.0218496 0.0143932 0.0138424 0.00038507 -0.000154409 0.00115712 0 0 -1.43822e-06 0.0005 1.46608e-07 
192 1 0.0210392 0.0216937 0.0153604 0.00591155 0.00434689 0.00632671 1.57621e-05 1.08495e-05 3.98895e-06 0.0005 1.46608e-07 
193 1 0.022368 0.0169779 0.0177227 0.0146288 -0.0418153 0.00497841 0 0 -1.43822e-06 0.0005 1.46608e-07 
194 1 0.0212504 0.0227553 0.0139339 -0.00283041 0.0012093 0.00175859 -4.40768e-06 -2.60444e-06 1.33386e-05 0.0005 1.46608e-07 
196 1 0.0223474 0.0236354 0.0173207 0.00428254 -0.00601356 0.00530474 0 0 -1.43822e-06 0.0005 1.46608e-07 
197 1 0.0243563 0.021174 0.0163205 -0.00157195 -0.00262679 -0.00107399 1.62703e-06 6.5736e-07 -2.16978e-06 0.0005 1.46608e-07 
199 1 0.018967 0.0224387 0.0167147 -0.00997024 -0.0055132 -0.007302 0 0 -1.43822e-06 0.0005 1.46608e-07 
200 1 0.0125489 0.0203816 0.0165997 0.0010541 0.000449325 -0.00122292 -2.08934e-07 3.21212e-07 3.63121e-07 0.0005 1.46608e-07 
201 1 0.0227521 0.0179988 0.0158328 0.0014778 0.00323804 -0.00103137 0 0 -1.43822e-06 0.0005 1.46608e-07 
202 1 0.0170856 0.0242214 0.0175013 0.00210341 0.000522964 0.000112554 -1.11787e-08 -3.74966e-07 -1.05009e-06 0.0005 1.46608e-07 
203 1 0.0224464 0.0198959 0.0162555 0.00512806 0.0106766 0.0167478 1.40482e-05 -4.90248e-05 9.98272e-06 0.0005 1.46608e-07 
204 1 0.0162432 0.0152328 0.0148265 0.0106324 -0.00993469 -0.00466655 -4.83902e-07 -3.68767e-07 -6.61818e-07 0.0005 1.46608e-07 
205 1 0.0186553 0.021458 0.0170119 -0.00934238 -0.00936907 0.00520721 -5.28074e-06 5.19112e-06 1.28064e-06 0.0005 1.46608e-07 
206 1 0.0203351 0.0228823 0.0170018 0.00382013 0.0200255 0.00657556 0 0 -1.43822e-06 0.0005 1.46608e-07 
208 1 0.0200599 0.0147513 0.0161178 -0.022964 1.6602e-05 0.0179601 0 0 -1.43822e-06 0.0005 1.46608e-07 
209 1 0.022851 0.0215157 0.0172165 0.000143626 -0.00866127 -0.00241503 -3.03094e-06 -8.84318e-07 -6.25786e-07 0.0005 1.46608e-07 
210 1 0.0192213 0.0226083 0.0157445 0.00127139 0.0171397 0.00783771 -9.54411e-06 -1.61479e-07 1.84651e-05 0.0005 1.46608e-07 
211 1 0.0157452 0.018585 0.0159176 0.00442178 0.00674589 0.000545301 1.42791e-06 6.84386e-07 -2.96759e-07 0.0005 1.46608e-07 
212 1 0.0159377 0.0234221 0.0172135 0.00259457 0.00346916 0.00168143 5.90614e-08 -1.72837e-07 -1.46578e-06 0.0005 1.46608e-07 
213 1 0.0237672 0.0173085 0.00755915 0.000402036 -0.0135946 0.00421999 -2.97606e-10 2.07351e-08 -4.25948e-09 0.0005 1.46608e-07 
214 1 0.0207923 0.0140754 0.0132534 -0.00115795 -0.00110314 0.001977 -1.94968e-08 -1.29498e-08 2.62029e-08 0.0005 1.46608e-07 
215 1 0.0258574 0.0184195 0.0167565 -0.000120189 0.00387858 -0.00115094 -1.10865e-08 5.77037e-07 1.24665e-07 0.0005 1.46608e-07 
216 1 0.0226256 0.0189006 0.0162469 0.00107699 0.00812065 -0.00686008 0 0 -1.43822e-06 0.0005 1.46608e-07 
217 1 0.0178847 0.0236362 0.015565 0.000371353 -0.00393837 -0.000432527 0 0 -1.43822e-06 0.0005 1.46608e-07 
218 1 0.0187532 0.0241429 0.0165041 0.000441128 -0.000171143 -0.000492712 0 0 -1.43822e-06 0.0005 1.46608e-07 
219 1 0.0219391 0.0171834 0.0168396 -0.00780701 -0.0103957 0.0194657 0 0 -1.43822e-06 0.0005 1.46608e-07 
220 1 0.0231063 0.0211268 0.0163274 -0.00524462 9.43578e-05 0.00332571 7.2338e-05 2.45787e-05 2.84544e-05 0.0005 1.46608e-07 
221 1 0.0143335 0.0224829 0.014315 0.00622497 0.00215355 -0.00213854 3.10634e-05 6.9933e-06 4.60286e-07 0.0005 1.46608e-07 
223 1 0.0190926 0.0194925 0.0167647 -0.00252624 0.0105462 0.00282423 7.66541e-07 -2.6038e-06 2.12113e-06 0.0005 1.46608e-07 
224 1 0.0153219 0.0231821 0.0144981 0.017656 0.011872 -0.00223925 -4.03797e-07 -1.56627e-07 1.29074e-07 0.0005 1.46608e-07 
225 1 0.0155672 0.0229958 0.0135468 0.00401147 0.00124413 -0.00364693 1.73508e-08 -8.50838e-09 1.173e-07 0.0005 1.46608e-07 
226 1 0.025966 0.0215236 0.0149198 0.00188279 0.0140093 -0.0115321 -1.31371e-08 7.49758e-09 -1.24294e-08 0.0005 1.46608e-07 
227 1 0.0129924 0.0212755 0.0165357 0.00291194 -0.000327112 -0.00386273 7.98584e-07 9.94455e-07 -1.43037e-06 0.0005 1.46608e-07 
228 1 0.0194052 0.0185429 0.0167581 0.00192191 0.0122854 0.00784134 3.22326e-06 -7.75649e-07 1.94333e-06 0.0005 1.46608e-07 
229 1 0.0170213 0.0150776 0.0135989 0.00352712 0.0014859 -0.00445114 1.63856e-07 -7.20621e-08 -5.94642e-07 0.0005 1.46608e-07 
230 1 0.0188755 0.0165577 0.0161222 8.61872e-06 0.0172832 0.00961909 -3.99119e-08 5.25391e-09 4.62328e-08 0.0005 1.46608e-07 
231 1 0.023816 0.0164624 0.0160474 -0.0134048 -0.016109 -0.00913602 2.08671e-07 9.80417e-09 5.67152e-08 0.0005 1.46608e-07 
232 1 0.0176004 0.0230586 0.0165848 -0.000124365 0.00230088 0.00701565 6.43943e-06 -1.26847e-05 -4.66886e-06 0.0005 1.46608e-07 
233 1 0.0183929 0.0232575 0.017173 -0.00306283 0.0180922 0.00533536 0 0 -1.43822e-06 0.0005 1.46608e-07 
234 1 0.0160292 0.0145535 0.0137941 0.00124103 -0.000163255 -0.00125061 1.21228e-07 7.73216e-07 -5.55611e-07 0.0005 1.46608e-07 
235 1 0.0179944 0.0221466 0.0167085 -0.00470475 -0.00246353 0.00159496 0 0 -1.43822e-06 0.0005 1.46608e-07 
236 1 0.0200024 0.0185322 0.017567 0.00677738 0.0231365 -0.000455061 0 0 -1.43822e-06 0.0005 1.46608e-07 
237 1 0.0220302 0.021594 0.0153351 0.00490093 -0.00403821 0.00230326 -1.33986e-06 7.90429e-06 -2.8022e-06 0.0005 1.46608e-07 
238 1 0.0161602 0.0222215 0.0175768 0.0100879 0.0164929 -0.0035367 0 0 -1.43822e-06 0.0005 1.46608e-07 
239 1 0.0224843 0.022446 0.0175412 0.0395706 -0.0011518 0.0188509 0 0 -1.43822e-06 0.0005 1.46608e-07 
240 1 0.0141528 0.0214685 0.015874 0.00266033 0.00669556 -0.00326628 -1.35025e-06 1.83882e-06 6.44187e-06 0.0005 1.46608e-07 
241 1 0.0183904 0.0142055 0.0147632 -0.00209718 -0.00146041 -0.00290863 1.27668e-07 3.19808e-07 9.28318e-07 0.0005 1.46608e-07 
242 1 0.0193439 0.021248 0.0163182 -0.00378206 0.00693821 0.00338117 4.2832e-06 -3.24938e-06 -4.08373e-06 0.0005 1.46608e-07 
243 1 0.0195384 0.0203871 0.0167881 -0.00155058 0.0120824 0.0106534 3.9242e-06 -1.97212e-07 -3.32545e-06 0.0005 1.46608e-07 
246 1 0.0165902 0.0211011 0.0171467 0.00252983 -0.00201821 0.00350254 0 0 -1.43822e-06 0.0005 1.46608e-07 
247 1 0.0246373 0.015971 0.0157541 -0.00889951 -0.00700798 -0.00652053 3.09748e-08 -3.54434e-07 1.44455e-06 0.0005 1.46608e-07 
248 1 0.0219046 0.0197019 0.0170735 0.00695372 0.0118083 0.0330766 2.05603e-05 -1.60521e-05 4.67506e-05 0.0005 1.46608e-07 
249 1 0.019726 0.0227494 0.0139465 0.000852488 0.00790684 -0.0116416 1.91006e-06 -5.99426e-06 1.12234e-05 0.0005 1.46608e-07 
250 1 0.0208899 0.0236571 0.014305 0.00475778 0.00091222 -0.00555318 -1.69888e-06 -1.00677e-05 1.26899e-05 0.0005 1.46608e-07 
251 1 0.0150951 0.0215559 0.0170378 0.00413191 0.00369679 0.00396588 1.0543e-06 -6.96395e-07 -2.93459e-07 0.0005 1.46608e-07 
252 1 0.0179464 0.0140481 0.0162056 -0.00333613 0.00346766 -0.00362808 2.49302e-08 -1.01393e-06 -6.14603e-07 0.0005 1.46608e-07 
253 1 0.0135114 0.0220953 0.0162939 0.0015192 0.00260865 -0.00143419 -1.8118e-06 -1.38073e-07 1.45218e-06 0.0005 1.46608e-07 
254 1 0.0143657 0.0205191 0.0156947 0.00249297 0.0080339 -0.00402252 -2.79244e-06 6.66484e-06 1.38379e-06 0.0005 1.46608e-07 
255 1 0.0143953 0.0219853 0.0176085 -4.81723e-05 0.00130692 0.00207315 2.69904e-07 -5.09527e-07 8.24303e-07 0.0005 1.46608e-07 
256 1 0.0201164 0.0238609 0.0155398 0.000380018 -0.00349612 -0.00799672 4.07541e-08 -3.88145e-07 -8.86937e-07 0.0005 1.46608e-07 
257 1 0.0153519 0.0204342 0.0157451 0.00117836 0.00456649 -0.00296916 -3.42534e-06 -4.22385e-06 1.84368e-06 0.0005 1.46608e-07 
258 1 0.0230689 0.0157012 0.015453 0.0525885 -0.0510133 -0.0564102 0 0 -1.43822e-06 0.0005 1.46608e-07 
259 1 0.0169599 0.0222969 0.0166811 0.00210304 0.000817526 0.00579123 -1.64563e-06 2.65332e-06 -4.02309e-07 0.0005 1.46608e-07 
260 1 0.0183491 0.0149003 0.0158721 -0.00217766 0.0059399 -0.000672926 -5.38293e-07 -2.89818e-07 2.78366e-06 0.0005 1.46608e-07 
261 1 0.0170032 0.0170411 0.0165665 0.00154109 0.0052665 0.00369927 2.88707e-07 -7.0204e-07 4.17581e-07 0.0005 1.46608e-07 
262 1 0.014837 0.0206678 0.0166581 0.00407167 0.00373293 0.00227135 8.08442e-07 2.67524e-06 3.13379e-07 0.0005 1.46608e-07 
263 1 0.015511 0.0223379 0.0154029 -0.000368017 -0.000256709 0.000187496 -1.74215e-05 1.50183e-05 -1.21154e-05 0.0005 1.46608e-07 
264 1 0.0160826 0.0218177 0.0166651 0.00112713 0.00271303 -0.000153362 -3.58435e-06 -1.15709e-06 -3.64512e-07 0.0005 1.46608e-07 
265 1 0.019855 0.0242354 0.0164493 0.000333613 -0.00150983 -0.0034938 2.70493e-08 -3.89588e-07 -8.87377e-07 0.0005 1.46608e-07 