ITEM: TIMESTEP
13800000
ITEM: NUMBER OF ATOMS
131
ITEM: BOX BOUNDS ff ff ff
-0.02 0.43
-0.02 0.06
-0.02 0.07
ITEM: ATOMS id type x y z vx vy vz fx fy fz radius mass 
1 1 0.0140821 0.022556 0.0154044 0.00493757 0.00196786 0.00510829 0 0 -1.43822e-06 0.0005 1.46608e-07 
2 1 0.0203809 0.0240696 0.012794 8.44481e-06 6.80403e-05 -0.000902681 7.50223e-07 4.28892e-07 -1.46194e-06 0.0005 1.46608e-07 
4 1 0.0243147 0.0224012 0.0157463 0.000168246 0.000591829 0.000905792 -1.88202e-07 2.07333e-07 -5.10019e-08 0.0005 1.46608e-07 
5 1 0.034148 0.0188327 0.00725839 -0.000676311 -0.0226103 -0.00157352 -1.02354e-09 -2.14378e-09 1.17788e-08 0.0005 1.46608e-07 
11 1 0.0259036 0.0187651 0.0167593 0.00126939 0.0106554 0.00427282 -1.22955e-06 -7.7621e-07 -1.14373e-06 0.0005 1.46608e-07 
15 1 0.00938048 0.0183393 0.00587271 3.64195e-15 5.68475e-16 -3.69009e-14 2.48816e-21 -2.90506e-21 2.11758e-22 0.0005 1.46608e-07 
16 1 0.0260148 0.0196703 0.00594114 1.7645e-14 2.83961e-15 -2.87664e-13 -8.47033e-22 -1.05383e-21 0 0.0005 1.46608e-07 
17 1 0.0318902 0.0162685 0.0147787 -0.000479693 0.0149517 0.0145434 1.22175e-07 5.99312e-08 -1.84809e-08 0.0005 1.46608e-07 
18 1 0.0366849 0.0218066 0.0435188 -9.6879e-317 9.73506e-317 2.68131e-13 0 0 0 0.0005 1.46608e-07 
19 1 0.0181329 0.0232028 0.0130695 0.00352596 0.000373354 -0.00229016 1.32028e-06 -1.96811e-06 5.53425e-06 0.0005 1.46608e-07 
20 1 0.0377938 0.016535 0.014997 0.00146392 0.0106052 0.00795808 1.75243e-09 6.69493e-10 -9.92709e-09 0.0005 1.46608e-07 
24 1 0.0305689 0.0217253 0.0149245 0.00121532 0.0128109 -0.00887117 -2.23607e-07 2.19937e-07 -1.9846e-07 0.0005 1.46608e-07 
25 1 0.017245 0.0141609 0.0133629 -0.00029798 -0.00086719 0.00192624 5.44607e-07 -2.63036e-07 2.25928e-07 0.0005 1.46608e-07 
27 1 0.000591717 0.0149731 0.0435188 9.71467e-317 9.75789e-317 -8.23806e-13 0 0 0 0.0005 1.46608e-07 
28 1 0.0347751 0.0216321 0.00800594 0.00159091 -0.00862139 -0.00426759 -4.42198e-07 4.31514e-07 -1.48265e-07 0.0005 1.46608e-07 
31 1 0.0198902 0.0164256 0.0151093 3.39556e-05 0.0185159 0.0137501 4.42699e-08 1.63105e-07 -3.28054e-07 0.0005 1.46608e-07 
32 1 0.0217356 0.0168028 0.00782114 0.000348094 -0.017597 0.0110005 -2.63593e-09 -3.58596e-09 1.44895e-08 0.0005 1.46608e-07 
33 1 0.019191 0.0139895 0.0129879 -0.000950678 0.000396672 -0.000859261 3.6976e-07 -5.58356e-08 2.72534e-07 0.0005 1.46608e-07 
35 1 0.0164784 0.0237926 0.0137852 -0.000766282 -0.000900376 -0.000792817 6.47259e-07 -2.78271e-07 -8.66762e-07 0.0005 1.46608e-07 
37 1 0.0329844 0.0149523 0.01034 0.000450319 -0.00503033 0.0197826 -5.47534e-09 5.43724e-09 1.4832e-08 0.0005 1.46608e-07 
41 1 0.0210243 0.0140184 0.0135797 -0.000220489 0.00173002 -0.00369396 -4.81246e-08 4.9622e-07 -1.28844e-06 0.0005 1.46608e-07 
43 1 0.0219437 0.0177475 0.00738874 -0.000214132 -0.0186992 0.00551364 -2.83103e-09 -1.41905e-08 2.24725e-08 0.0005 1.46608e-07 
44 1 0.0265446 0.0148404 0.0121187 0.00249603 0.00303609 0.0125956 -1.15074e-08 9.74916e-09 3.82638e-08 0.0005 1.46608e-07 
47 1 0.0181964 0.0140387 0.0130784 -0.000760095 0.000941929 -0.0019596 -1.28932e-07 -4.14416e-08 1.16185e-07 0.0005 1.46608e-07 
49 1 0.003617 0.0285782 0.0435188 -9.68849e-317 -9.75601e-317 2.88878e-12 0 0 0 0.0005 1.46608e-07 
52 1 0.0372261 0.0190026 0.0157558 -0.000322218 0.0225741 0.00224624 -2.73084e-09 2.72652e-09 -9.40291e-09 0.0005 1.46608e-07 
57 1 0.0196051 0.0193773 0.00612808 -3.58964e-14 1.60991e-14 -3.28527e-13 -2.64698e-23 9.39677e-22 0 0.0005 1.46608e-07 
59 1 0.0353112 0.0229057 0.0096182 0.00133955 -0.00796944 -0.0146192 4.64415e-08 -1.83143e-07 -2.16685e-07 0.0005 1.46608e-07 
62 1 0.0193216 0.0189285 0.016155 -0.000874547 0.0468354 0.0114048 0 0 -1.43822e-06 0.0005 1.46608e-07 
63 1 0.0207656 0.0168303 0.0153694 0.000248561 0.0196206 0.0114163 1.13549e-08 -1.35065e-07 3.64335e-07 0.0005 1.46608e-07 
65 1 0.0346194 0.0208949 0.00773898 0.00118393 -0.00733626 -0.00319562 1.20354e-07 2.13799e-07 -1.78838e-07 0.0005 1.46608e-07 
67 1 0.0349284 0.0220618 0.00836422 0.0026425 -0.00941535 -0.00960792 -1.00658e-06 1.03924e-06 7.99715e-07 0.0005 1.46608e-07 
68 1 0.0356372 0.0233843 0.0111426 0.000632886 -0.000854589 -0.0211 3.03552e-09 -1.0186e-08 -2.38549e-10 0.0005 1.46608e-07 
71 1 0.0145701 0.0217407 0.0150449 0.0109024 -0.00248603 -0.000133966 -2.60752e-07 1.01075e-06 -9.02111e-07 0.0005 1.46608e-07 
73 1 0.0183265 0.0228546 0.0139732 0.00330954 0.00446325 -0.00261849 3.73174e-06 -4.11179e-06 8.95985e-06 0.0005 1.46608e-07 
74 1 0.0274537 0.0160529 0.00842551 -0.000844177 -0.0191899 0.01555 1.08205e-08 2.25251e-08 -5.41877e-08 0.0005 1.46608e-07 
76 1 0.0252238 0.0214377 0.0164 -0.00929023 -0.00551512 -0.0206201 -3.70272e-07 -1.73528e-07 -7.69546e-07 0.0005 1.46608e-07 
79 1 0.0326726 0.0147433 0.0114671 0.000353432 -0.00132138 0.0216194 2.33144e-09 1.1826e-08 3.26123e-09 0.0005 1.46608e-07 
84 1 0.028781 0.0214381 0.00787231 0.00195523 -0.00742658 -0.00524401 6.2561e-07 5.77371e-07 1.43717e-07 0.0005 1.46608e-07 
86 1 0.0249017 0.01841 0.0168478 -0.0250553 -0.0408754 -0.0996065 0 0 -1.43822e-06 0.0005 1.46608e-07 
87 1 0.0332548 0.0154503 0.0091911 0.000275356 -0.0114957 0.0180667 5.27006e-09 -3.00355e-08 2.525e-08 0.0005 1.46608e-07 
88 1 0.0317789 0.0199744 0.015677 0.000376095 -0.000623434 0.00213648 -1.1945e-08 -2.67074e-07 9.16553e-08 0.0005 1.46608e-07 
89 1 0.0366624 0.0213082 0.0150728 0.000225405 0.0175875 -0.0115449 -1.2705e-09 -8.93915e-10 -1.18822e-08 0.0005 1.46608e-07 
90 1 0.0271127 0.0150616 0.00987916 0.000111488 -0.00840641 0.0199134 4.89178e-10 7.475e-09 1.01405e-08 0.0005 1.46608e-07 
92 1 0.0325155 0.0148681 0.0123713 0.000288404 0.00470989 0.020073 -1.23684e-09 1.23387e-08 3.86821e-09 0.0005 1.46608e-07 
97 1 0.0183676 0.023809 0.0123704 0.00140022 3.7344e-05 -0.00099568 1.09278e-06 -6.67437e-07 1.57059e-06 0.0005 1.46608e-07 
103 1 0.0311565 0.0192638 0.0158329 0.00359033 0.00472104 0.000329873 1.60267e-09 -1.94443e-07 4.57797e-09 0.0005 1.46608e-07 
106 1 0.0202476 0.0228071 0.013888 0.00726818 -0.00868081 0.00994619 -2.89118e-07 6.63088e-08 -1.5176e-06 0.0005 1.46608e-07 
108 1 0.0214483 0.0168437 0.00645098 -2.40935e-14 5.07273e-14 1.8435e-13 -2.65942e-19 2.11388e-19 -9.08443e-20 0.0005 1.46608e-07 
109 1 0.0232901 0.023174 0.0146979 -9.70847e-05 0.000303126 -0.000142999 2.25304e-08 -6.25959e-09 -7.54734e-10 0.0005 1.46608e-07 
110 1 0.0214136 0.0233927 0.0144553 -0.00654272 0.0326699 -0.0475337 3.19223e-08 3.63701e-07 -6.29937e-07 0.0005 1.46608e-07 
112 1 0.0296175 0.0233749 0.0110458 0.000909408 -0.000873771 -0.0212527 3.89061e-09 -1.04776e-08 -1.17849e-09 0.0005 1.46608e-07 
116 1 0.0226978 0.0238189 0.0148711 -0.000147467 -0.000173315 0.000122799 -6.23882e-09 2.81461e-09 -9.87489e-09 0.0005 1.46608e-07 
121 1 0.0551527 0.0181697 0.00595147 -1.30225e-14 -1.76563e-14 -2.51655e-13 -3.57474e-20 6.08805e-21 1.48231e-21 0.0005 1.46608e-07 
122 1 0.0390312 0.0149653 0.010131 0.00179395 -0.00582117 0.0139785 1.76896e-08 2.69474e-08 -5.92517e-08 0.0005 1.46608e-07 
124 1 0.0207203 0.0152409 0.0149799 0.023811 -0.0245535 -0.013671 0 0 -1.43822e-06 0.0005 1.46608e-07 
125 1 0.0381982 0.0154189 0.0137571 0.00184791 0.00524793 0.0108122 -9.90005e-09 -1.43831e-08 -1.57624e-08 0.0005 1.46608e-07 
126 1 0.0224526 0.0236259 0.0139981 -0.000713865 -0.000862258 -0.000519871 -3.56349e-09 1.36606e-08 4.16588e-09 0.0005 1.46608e-07 
128 1 0.0303903 0.00406748 0.0435188 -9.67556e-317 -9.75879e-317 -3.22607e-12 0 0 0 0.0005 1.46608e-07 
130 1 0.023644 0.0233901 0.0112049 0.00112331 -0.000981069 -0.0161318 2.05464e-08 -1.72448e-08 4.33354e-08 0.0005 1.46608e-07 
131 1 0.0337487 0.0151381 0.00970124 0.00216636 -0.00576262 0.011097 1.76264e-08 1.96839e-08 -5.64784e-08 0.0005 1.46608e-07 
133 1 0.0194436 0.0224569 0.0143802 0.0102858 -0.00169157 0.0012015 0 0 -1.43822e-06 0.0005 1.46608e-07 
135 1 0.0369559 0.0202275 0.0156204 0.000928973 0.0150966 -0.00541577 -5.1163e-09 1.55755e-08 -1.41213e-08 0.0005 1.46608e-07 
137 1 0.0241015 0.0222979 0.0145385 0.000617063 0.00196302 0.000668007 -1.35969e-08 3.40031e-08 -1.16078e-07 0.0005 1.46608e-07 
138 1 0.0182894 0.0242007 0.013289 0.000561895 -0.00201093 -0.00462678 1.90647e-08 -2.83985e-07 -1.04784e-06 0.0005 1.46608e-07 
139 1 0.0278013 0.0171017 0.00762017 0.00115054 -0.0162094 0.00774676 -1.33062e-09 5.93525e-09 1.12924e-08 0.0005 1.46608e-07 
141 1 0.0256077 0.0204627 0.0156957 0.000254526 0.0003886 -5.87313e-05 2.46063e-08 -4.89359e-08 -1.05067e-07 0.0005 1.46608e-07 
142 1 0.0393564 0.01581 0.00873014 0.000271215 -0.0135373 0.0159079 -2.0859e-09 4.92028e-09 1.16767e-08 0.0005 1.46608e-07 
143 1 0.0313464 0.018438 0.0157605 0.00148834 0.0177255 0.00269817 -1.22772e-08 -6.05412e-08 3.65802e-11 0.0005 1.46608e-07 
147 1 0.0289699 0.0221822 0.00850285 0.000776135 -0.00810416 -0.00748697 -4.28152e-07 -4.04821e-08 -4.02083e-07 0.0005 1.46608e-07 
149 1 0.0570019 0.0175547 0.00590579 4.33697e-15 1.19003e-14 2.80767e-13 -1.273e-19 -2.61521e-20 3.17637e-21 0.0005 1.46608e-07 
150 1 0.0186345 0.0220367 0.0147938 -0.00873482 0.0267196 -0.0249648 1.32744e-07 1.72261e-07 -7.92638e-07 0.0005 1.46608e-07 
151 1 0.023516 0.0150348 0.0149024 -0.00219734 -5.1862e-05 -0.0036555 -1.30985e-07 -1.8625e-07 5.92855e-08 0.0005 1.46608e-07 
157 1 0.0202401 0.0143969 0.014281 -0.000767011 -0.0145761 0.00857487 0 0 -1.43822e-06 0.0005 1.46608e-07 
158 1 0.0192031 0.0229916 0.0135687 0.00155477 0.00347168 -0.0038999 8.20589e-07 1.35594e-06 -5.07998e-06 0.0005 1.46608e-07 
160 1 0.0350849 0.0224308 0.00885039 0.00125315 -0.00954383 -0.0143376 3.77915e-07 -2.10338e-07 1.73966e-07 0.0005 1.46608e-07 
161 1 0.0221348 0.00230077 0.0435188 9.74157e-317 -9.69799e-317 9.23294e-13 0 0 0 0.0005 1.46608e-07 
165 1 0.0179883 0.0144201 0.0139798 0.00247483 0.000367181 -0.00128344 0 0 -1.43822e-06 0.0005 1.46608e-07 
166 1 0.0301191 0.0230343 0.0131478 0.000236671 0.00975093 -0.0198986 4.66585e-09 -1.17417e-08 -1.67099e-09 0.0005 1.46608e-07 
167 1 0.0219864 0.0151088 0.0147718 0.000506519 0.00950925 0.0124604 2.81715e-06 2.85973e-06 1.04625e-05 0.0005 1.46608e-07 
170 1 0.0199544 0.0232315 0.0129986 0.000889271 0.000464046 -0.00260559 -1.10108e-06 2.80123e-06 -7.61518e-06 0.0005 1.46608e-07 
171 1 0.0141745 0.0224147 0.0144184 0.00164486 -0.00182358 0.00075683 0 0 -1.43822e-06 0.0005 1.46608e-07 
173 1 0.0216451 0.0161069 0.0148463 0.00309398 0.0177178 0.0154103 -2.0863e-07 -7.4078e-08 -5.30475e-07 0.0005 1.46608e-07 
174 1 0.0192649 0.0201731 0.0158087 -0.00849522 0.134594 -0.0278075 5.12766e-08 -4.81861e-07 -1.01153e-07 0.0005 1.46608e-07 
179 1 0.024519 0.021685 0.0151159 0.00169016 0.00315563 -0.000959896 -9.57401e-09 2.25063e-07 2.66682e-07 0.0005 1.46608e-07 
185 1 0.0322732 0.0152529 0.0134723 0.000257087 0.00895489 0.0195475 4.57521e-09 7.14199e-09 -1.21902e-08 0.0005 1.46608e-07 
186 1 0.0309568 0.0202331 0.0156178 0.000760095 0.0202194 -0.00574795 -1.45357e-08 1.68277e-07 -9.83313e-08 0.0005 1.46608e-07 
187 1 0.0298693 0.0233299 0.0121529 0.00124503 0.00218454 -0.0189032 -1.70119e-08 1.16572e-09 -3.34971e-08 0.0005 1.46608e-07 
191 1 0.0147149 0.015707 0.0144374 0.00220488 -0.0473295 -0.0458732 -9.08172e-09 -3.26099e-07 -1.61651e-07 0.0005 1.46608e-07 
193 1 0.0245476 0.0198163 0.00585259 2.60856e-15 4.20519e-16 -4.25291e-14 -2.51463e-22 9.8633e-21 0 0.0005 1.46608e-07 
194 1 0.029432 0.0231292 0.010025 0.000253507 -0.00704585 -0.0200136 -1.79564e-09 -1.16019e-08 -5.80185e-09 0.0005 1.46608e-07 
197 1 0.0315737 0.0176172 0.0155502 0.000252216 0.0200709 0.00665414 -9.144e-08 -5.49052e-08 -5.13372e-08 0.0005 1.46608e-07 
200 1 0.019336 0.0239672 0.0126975 0.00982771 0.0064202 0.0118513 -2.42219e-07 -7.58148e-07 -1.39603e-06 0.0005 1.46608e-07 
205 1 0.0317311 0.0169009 0.015254 3.26536e-05 0.0187125 0.0112349 -1.37412e-07 -1.37112e-08 3.21251e-08 0.0005 1.46608e-07 
206 1 0.0212804 0.0154784 0.0141594 0.000978163 0.0139781 0.0190945 6.02187e-07 5.11231e-07 -1.45409e-06 0.0005 1.46608e-07 
215 1 0.026935 0.0188837 0.00598981 1.43031e-14 2.30425e-15 -2.33189e-13 -1.45584e-22 -1.64113e-21 0 0.0005 1.46608e-07 
224 1 0.0235463 0.0230025 0.0156356 -2.22077e-05 0.000107121 3.87523e-05 6.47466e-09 -8.1377e-08 -7.36675e-10 0.0005 1.46608e-07 
225 1 0.0200487 0.0138256 0.0134751 -0.000150032 0.000377845 -0.00258104 4.67799e-07 -1.93408e-07 2.62946e-07 0.0005 1.46608e-07 
226 1 0.0363357 0.0223548 0.0141995 0.000153289 0.0160936 -0.0166381 5.51029e-10 -5.50181e-09 -8.42695e-09 0.0005 1.46608e-07 
227 1 0.0256055 0.019486 0.0159299 0.00319122 0.00719369 0.00342032 1.47005e-05 5.79546e-05 -1.18863e-06 0.0005 1.46608e-07 
228 1 0.0229608 0.0217652 0.00840054 0.00158464 -0.00610246 -0.00553939 4.4661e-08 1.38531e-07 8.52478e-08 0.0005 1.46608e-07 
229 1 0.0339445 0.0176885 0.00742473 0.00149918 -0.0161959 0.00633823 -1.79402e-08 -4.08671e-08 1.68543e-08 0.0005 1.46608e-07 
232 1 0.0221996 0.00109062 0.0435188 9.58743e-317 9.68145e-317 4.97437e-14 0 0 0 0.0005 1.46608e-07 
235 1 0.0229708 0.0222862 0.00877108 0.00310965 -0.00806404 -0.0094397 5.24431e-07 2.52159e-06 1.35436e-06 0.0005 1.46608e-07 
237 1 0.0335107 0.0161897 0.00829299 0.00144528 -0.0131745 0.0132151 -1.84802e-08 -2.72773e-08 3.15811e-08 0.0005 1.46608e-07 
240 1 0.0204616 0.0203031 0.0160948 0.0187293 -0.148003 0.0498401 0 0 -1.43822e-06 0.0005 1.46608e-07 
241 1 0.0254168 0.0185048 0.0159254 0.000386031 0.00449996 0.00186991 4.65342e-06 -3.94976e-05 -7.79379e-07 0.0005 1.46608e-07 
242 1 0.0238522 0.022757 0.00929398 0.00329834 -0.00567573 -0.00846645 1.14108e-05 3.97052e-05 5.08342e-05 0.0005 1.46608e-07 
247 1 0.0375568 0.0176914 0.0155053 0.00029834 0.0200036 0.00642026 -1.63658e-09 9.09907e-09 -8.49201e-09 0.0005 1.46608e-07 
252 1 0.0174825 0.0232001 0.0106843 0.000511801 -0.00234351 -0.012291 1.401e-06 9.62601e-08 1.21206e-06 0.0005 1.46608e-07 
253 1 0.0213762 0.0149217 0.0133343 0.000235937 0.00924655 0.0210645 5.6613e-07 4.5679e-07 -4.70039e-06 0.0005 1.46608e-07 
256 1 0.0221921 0.0152523 0.0138039 3.85276e-05 0.0114598 0.0186111 3.10661e-08 -2.3934e-06 -6.27012e-06 0.0005 1.46608e-07 
257 1 0.0215922 0.0173418 0.0155995 3.63015e-05 0.021175 0.00887261 3.49986e-09 6.53892e-08 1.0669e-07 0.0005 1.46608e-07 
258 1 0.0320768 0.0156492 0.0141551 0.00141613 0.0104049 0.0151423 8.91008e-09 -1.40481e-08 -1.66697e-08 0.0005 1.46608e-07 
260 1 0.108836 0.0200055 0.00584234 7.53155e-16 -1.27642e-15 -6.9751e-15 -2.64698e-23 -1.16467e-21 2.11758e-22 0.0005 1.46608e-07 
263 1 0.0212054 0.0152332 0.00945315 0.000436698 -0.00634071 0.0111889 2.74368e-09 8.51565e-09 -1.6315e-08 0.0005 1.46608e-07 
268 1 0.020474 0.0146907 0.0129764 2.12463e-06 0.00725483 0.0229123 -5.60432e-08 -6.84497e-07 3.84086e-07 0.0005 1.46608e-07 
269 1 0.0268195 0.0147569 0.0109854 0.00026858 -0.00299799 0.0212136 -2.13738e-09 9.76885e-09 7.74666e-09 0.0005 1.46608e-07 
270 1 0.0227858 0.0146464 0.0143398 -0.00219852 -0.000456535 -0.00136912 1.34862e-08 -8.81043e-09 2.91319e-08 0.0005 1.46608e-07 
271 1 0.0284315 0.0198595 0.00730025 -0.000335487 -0.0216959 -0.00560069 -2.51556e-09 -6.23209e-09 9.56988e-09 0.0005 1.46608e-07 
272 1 0.0218775 0.0143241 0.0140022 0.0009071 0.00577154 -0.00901482 -5.52203e-07 -1.09631e-06 1.23982e-06 0.0005 1.46608e-07 
274 1 0.017019 0.023378 0.0145185 0.0126451 0.00028139 -0.00565437 -1.00388e-05 1.0718e-05 -1.28171e-05 0.0005 1.46608e-07 
275 1 0.0231872 0.0227941 0.00938159 0.00175943 -0.00822529 -0.012858 2.60078e-07 8.14374e-06 3.84264e-06 0.0005 1.46608e-07 
277 1 0.0182167 0.0233847 0.0110671 -0.00160207 0.00303696 0.00418157 -2.26213e-06 8.75864e-06 2.79848e-05 0.0005 1.46608e-07 
282 1 0.0191179 0.0234852 0.0118125 0.000277493 0.000558444 -0.00161347 -5.83952e-07 -5.55283e-07 -3.2346e-06 0.0005 1.46608e-07 
284 1 0.00937694 0.00505359 0.0435188 -9.68799e-317 -9.69932e-317 9.23294e-13 0 0 0 0.0005 1.46608e-07 
288 1 0.0206891 0.014617 0.0119763 0.00433086 -0.00184125 0.00342962 5.37299e-07 6.46061e-08 -9.36014e-07 0.0005 1.46608e-07 
291 1 0.0172363 0.0240548 0.0131874 0.000114967 0.00101753 -0.000669848 4.13753e-06 3.68948e-07 -1.17126e-06 0.0005 1.46608e-07 
294 1 0.0248494 0.0209571 0.0155601 0.00237409 0.00225348 -0.000830218 -8.01373e-08 1.82055e-07 1.0573e-07 0.0005 1.46608e-07 
299 1 0.0254808 0.018723 0.00589902 -2.07857e-14 -3.32477e-15 3.38791e-13 -2.75947e-20 4.36503e-20 -1.48231e-21 0.0005 1.46608e-07 
300 1 0.0303421 0.0223907 0.0141789 0.000275713 0.012436 -0.0161332 -5.88381e-10 -1.05166e-10 -1.20937e-08 0.0005 1.46608e-07 
