ITEM: TIMESTEP
22600000
ITEM: NUMBER OF ATOMS
108
ITEM: BOX BOUNDS ff ff ff
-0.02 0.43
-0.02 0.06
-0.02 0.07
ITEM: ATOMS id type x y z vx vy vz fx fy fz radius mass 
1 1 0.0206868 0.0203282 0.0157645 0.000269271 0.0210199 -0.00620976 -1.10548e-09 3.53418e-10 -1.68899e-08 0.0005 1.46608e-07 
2 1 0.0229651 0.015212 0.0137383 0.00513926 0.00305188 0.00589117 4.44452e-08 -4.76942e-08 1.33784e-07 0.0005 1.46608e-07 
4 1 0.0187308 0.0221908 0.00868635 -0.000149865 -0.0134938 -0.0177405 -6.58027e-10 -9.12578e-09 4.47506e-09 0.0005 1.46608e-07 
5 1 0.0552425 0.0189586 0.00589144 -9.84467e-15 -1.33745e-14 -1.90504e-13 -5.29396e-23 5.29396e-23 0 0.0005 1.46608e-07 
15 1 0.00938048 0.0183393 0.00587271 3.6452e-15 5.44626e-16 -3.69009e-14 9.26442e-22 -8.13284e-21 0 0.0005 1.46608e-07 
16 1 0.0260391 0.0196534 0.00594246 2.09856e-14 3.38083e-15 -3.42138e-13 5.29396e-23 -5.07889e-22 0 0.0005 1.46608e-07 
17 1 0.0417871 0.0186858 0.00721353 0.00193753 -0.0144484 0.00215719 -5.44975e-09 -4.2632e-08 1.20161e-08 0.0005 1.46608e-07 
18 1 0.0366849 0.0218066 0.0435188 -9.6879e-317 9.73506e-317 2.68131e-13 0 0 0 0.0005 1.46608e-07 
20 1 0.047023 0.0157988 0.00880417 0.00224489 -0.00682257 0.00926162 -2.23125e-08 -3.70585e-08 -7.09779e-10 0.0005 1.46608e-07 
24 1 0.040126 0.014906 0.0126087 1.58459e-05 0.00380257 0.0220026 -6.6307e-10 1.00877e-08 -1.60136e-10 0.0005 1.46608e-07 
25 1 0.0339249 0.0173116 0.00624552 -4.3809e-16 -9.44891e-15 -2.80676e-14 -1.57369e-19 4.87044e-20 -1.3976e-20 0.0005 1.46608e-07 
27 1 0.000591717 0.0149731 0.0435188 9.71467e-317 9.75789e-317 -8.23806e-13 0 0 0 0.0005 1.46608e-07 
28 1 0.044334 0.0215514 0.0150458 0.000938972 0.0152273 -0.0113774 -4.44264e-09 -1.04637e-10 -1.47957e-08 0.0005 1.46608e-07 
32 1 0.0364748 0.0208476 0.00623738 4.37144e-15 -1.48265e-14 6.83465e-14 -2.07788e-21 1.48231e-21 2.11758e-22 0.0005 1.46608e-07 
33 1 0.0299278 0.0191998 0.00717461 -2.3789e-05 -0.0222793 -0.00197697 5.4707e-10 -4.21035e-09 1.17855e-08 0.0005 1.46608e-07 
37 1 0.043065 0.0230966 0.0100828 0.000239349 -0.0070904 -0.0191458 5.54492e-06 -1.34646e-07 -9.86325e-07 0.0005 1.46608e-07 
41 1 0.0259053 0.0225979 0.0138257 -2.30718e-05 0.0132482 -0.0176458 -2.4497e-10 -8.04996e-09 -8.67717e-09 0.0005 1.46608e-07 
44 1 0.0341968 0.0148316 0.0122478 0.000841068 0.00113504 0.0134817 9.53194e-09 9.2661e-09 -3.92605e-08 0.0005 1.46608e-07 
47 1 0.0192168 0.0232837 0.0107629 0.00347011 -0.00364704 -0.0108594 -7.77108e-09 1.79739e-08 2.83919e-08 0.0005 1.46608e-07 
49 1 0.003617 0.0285782 0.0435188 -9.68849e-317 -9.75601e-317 2.88878e-12 0 0 0 0.0005 1.46608e-07 
52 1 0.0860181 0.0183082 0.00577269 -1.22273e-15 3.67083e-14 1.26768e-13 3.4692e-21 -2.11758e-22 0 0.0005 1.46608e-07 
57 1 0.0177449 0.0174882 0.00600758 2.62529e-15 1.02256e-14 2.1282e-14 5.29396e-23 -1.58819e-21 6.35275e-22 0.0005 1.46608e-07 
59 1 0.0450344 0.0184948 0.0157759 0.000254368 0.0211228 0.00352295 -5.90274e-10 8.25591e-09 -9.51847e-09 0.0005 1.46608e-07 
62 1 0.0234739 0.0232105 0.0127729 -0.000661558 0.00514983 -0.0204514 6.11697e-08 1.72439e-08 -4.25887e-08 0.0005 1.46608e-07 
63 1 0.0206654 0.0140667 0.0132136 -0.00108377 0.00124251 -0.00334662 1.28208e-08 -1.48546e-08 3.81935e-08 0.0005 1.46608e-07 
65 1 0.043916 0.0227397 0.0138046 0.00105181 0.00918934 -0.0132741 2.14787e-08 -4.38135e-08 4.91147e-08 0.0005 1.46608e-07 
67 1 0.0445898 0.0204655 0.0155256 -0.000984693 0.0212174 -0.00585896 1.40932e-08 5.70515e-09 -1.46462e-08 0.0005 1.46608e-07 
68 1 0.0452523 0.0173614 0.00620617 -3.1307e-15 -1.74642e-14 -1.20236e-13 5.20131e-21 -5.29396e-22 0 0.0005 1.46608e-07 
73 1 0.0349285 0.0181778 0.00592251 6.41318e-16 6.72283e-15 2.00022e-14 -1.41481e-20 2.8058e-21 -2.11758e-22 0.0005 1.46608e-07 
74 1 0.0359838 0.0194973 0.00736707 6.92023e-05 -0.0221838 -0.00315371 -7.16191e-10 -3.16286e-09 1.10592e-08 0.0005 1.46608e-07 
76 1 0.0290383 0.0157321 0.00874057 0.000903251 -0.0111041 0.0142886 -2.24855e-08 -7.62556e-08 1.40844e-07 0.0005 1.46608e-07 
79 1 0.054387 0.0178804 0.00601135 -1.30005e-14 -1.76647e-14 -2.51655e-13 1.77348e-21 -6.94832e-21 4.23516e-22 0.0005 1.46608e-07 
84 1 0.0371291 0.0232095 0.0103529 0.000648613 -0.00576917 -0.0171171 -9.72619e-09 -9.20672e-08 -1.97586e-07 0.0005 1.46608e-07 
87 1 0.0432512 0.0233716 0.010919 0.000502276 -0.004122 -0.0177938 3.69767e-05 -4.36862e-06 -6.86919e-06 0.0005 1.46608e-07 
88 1 0.0427943 0.0225239 0.00891543 0.000306188 -0.0108375 -0.0173889 6.55621e-09 7.3237e-08 1.62946e-07 0.0005 1.46608e-07 
89 1 0.0459838 0.0151898 0.0133426 0.00026028 0.00878669 0.0195497 -2.14068e-09 1.26311e-08 3.79907e-10 0.0005 1.46608e-07 
90 1 0.0355119 0.0173877 0.00753455 0.000377996 -0.0185858 0.00827334 -5.045e-09 -9.23931e-09 1.40905e-08 0.0005 1.46608e-07 
92 1 0.0425816 0.0219133 0.0082696 0.00034727 -0.0154738 -0.0129551 3.60006e-09 3.07339e-09 2.65776e-08 0.0005 1.46608e-07 
97 1 0.0221558 0.0148566 0.0124805 0.00017241 0.00463418 0.0206867 -1.96245e-09 1.63816e-08 9.02097e-09 0.0005 1.46608e-07 
103 1 0.0411791 0.016092 0.00843947 -0.0350452 -0.150944 -0.0157296 -0.0142794 -0.0398116 -0.0249325 0.0005 1.46608e-07 
108 1 0.0214483 0.0168437 0.00645098 -2.3874e-14 5.08799e-14 1.84336e-13 4.85456e-20 1.87406e-20 1.27055e-21 0.0005 1.46608e-07 
109 1 0.0307702 0.0224123 0.0087683 0.000271112 -0.013103 -0.01547 -7.62922e-10 -1.25896e-08 6.88071e-10 0.0005 1.46608e-07 
112 1 0.0386219 0.0201783 0.0156535 0.00236082 0.0101115 -0.000686024 1.20582e-09 -5.76013e-08 2.76323e-08 0.0005 1.46608e-07 
121 1 0.0586827 0.0172628 0.00598816 1.03638e-14 -2.15392e-14 -2.65e-13 -1.12827e-20 2.92491e-21 -6.35275e-22 0.0005 1.46608e-07 
122 1 0.0792478 0.0194315 0.00576454 1.18211e-14 4.01967e-14 1.70232e-13 3.26068e-19 3.39872e-20 -3.07049e-20 0.0005 1.46608e-07 
124 1 0.014731 0.0226508 0.0141058 0.00290706 0.00146564 -0.00140422 -2.4782e-08 -3.40492e-09 3.05482e-08 0.0005 1.46608e-07 
125 1 0.0472598 0.0164189 0.00813637 0.00105463 -0.0135105 0.0120861 -5.70498e-09 -4.4051e-09 1.32751e-08 0.0005 1.46608e-07 
128 1 0.0303903 0.00406748 0.0435188 -9.67556e-317 -9.75879e-317 -3.22607e-12 0 0 0 0.0005 1.46608e-07 
130 1 0.0328338 0.0192146 0.0158145 0.000740433 0.00861635 0.000532398 3.71767e-06 -1.87756e-05 3.79934e-06 0.0005 1.46608e-07 
131 1 0.0475673 0.0175428 0.00751951 -6.4401e-05 -0.0209867 0.00683151 -1.64935e-09 2.32855e-10 1.13709e-08 0.0005 1.46608e-07 
133 1 0.0220332 0.0149721 0.0134661 0.000364431 0.00672063 0.0200355 -6.01665e-08 4.84811e-07 -1.62291e-07 0.0005 1.46608e-07 
135 1 0.0463551 0.0148166 0.0116185 -0.000328451 -0.00094815 0.0201362 4.10859e-10 1.30442e-08 3.08952e-09 0.0005 1.46608e-07 
137 1 0.0473953 0.0193073 0.0059321 4.74235e-15 -1.01763e-14 -1.05707e-13 -6.77626e-21 -7.51742e-21 4.23516e-22 0.0005 1.46608e-07 
139 1 0.0365109 0.0217387 0.00812992 0.00463389 -0.0048633 -0.00250431 4.24428e-09 3.99915e-08 8.70421e-09 0.0005 1.46608e-07 
141 1 0.0331177 0.0181463 0.0156807 0.000194192 0.0213021 0.00553802 -3.28044e-10 7.14577e-09 -1.0526e-08 0.0005 1.46608e-07 
142 1 0.0478481 0.018891 0.00724179 0.000396996 -0.0121301 -0.000155401 9.49443e-08 2.76754e-07 -5.87455e-08 0.0005 1.46608e-07 
143 1 0.0413409 0.0165743 0.00795915 0.0101794 -1.06319e-05 -0.0119196 -0.00072795 -0.000703678 -0.000309803 0.0005 1.46608e-07 
147 1 0.0383212 0.0215126 0.0148322 0.00241516 0.0107932 -0.00602211 -1.20055e-08 8.82488e-09 1.76506e-08 0.0005 1.46608e-07 
149 1 0.0584376 0.0191695 0.00582359 8.12061e-15 -1.68462e-14 -2.07264e-13 -1.56635e-20 -4.76456e-21 -4.23516e-22 0.0005 1.46608e-07 
150 1 0.0218349 0.0155497 0.0142579 0.000726206 0.012501 0.0155443 -7.96843e-08 3.57901e-07 6.24455e-07 0.0005 1.46608e-07 
157 1 0.0175188 0.0146188 0.0119459 0.00122837 -0.00119013 0.00242841 9.60623e-09 -1.0606e-08 2.2503e-08 0.0005 1.46608e-07 
158 1 0.020084 0.0201843 0.0061153 5.49915e-15 -2.49933e-15 5.04906e-14 6.51157e-21 4.30663e-20 1.48231e-21 0.0005 1.46608e-07 
160 1 0.0448176 0.0193845 0.0157611 0.0010038 0.0192589 -0.00221828 -9.95549e-09 1.96196e-08 -1.20319e-08 0.0005 1.46608e-07 
161 1 0.0221348 0.00230077 0.0435188 9.74157e-317 -9.69799e-317 9.23294e-13 0 0 0 0.0005 1.46608e-07 
165 1 0.201805 0.0186174 0.00570934 -3.8561e-20 -4.95312e-22 -1.30474e-21 0 0 0 0.0005 1.46608e-07 
166 1 0.0397183 0.0160481 0.0144739 9.08307e-05 0.0148097 0.0162139 -1.53128e-09 7.89276e-09 -4.45134e-09 0.0005 1.46608e-07 
167 1 0.027303 0.0170964 0.0152527 0.000330426 0.0190863 0.0106956 7.34699e-07 2.46082e-06 1.8323e-06 0.0005 1.46608e-07 
173 1 0.0830234 0.0186618 0.00583976 1.15343e-14 3.23736e-14 -1.39059e-13 -8.18578e-20 8.47033e-21 -5.50571e-21 0.0005 1.46608e-07 
174 1 0.0264157 0.0211141 0.0152279 0.00174952 0.0135015 -0.0080321 -8.27393e-09 1.57165e-08 -2.87056e-08 0.0005 1.46608e-07 
179 1 0.067984 0.0193424 0.00575613 3.91108e-15 7.52385e-15 2.61625e-13 2.56459e-20 2.07457e-20 -1.05879e-21 0.0005 1.46608e-07 
185 1 0.0423756 0.0211051 0.00774287 5.66352e-05 -0.0188568 -0.0114165 -1.23161e-09 -8.47305e-09 7.4024e-09 0.0005 1.46608e-07 
186 1 0.0404417 0.0147911 0.0112575 0.000294292 -0.000815016 0.0208852 -1.40085e-09 1.02062e-08 6.87986e-09 0.0005 1.46608e-07 
187 1 0.0393019 0.0172008 0.0153736 0.00318981 -0.00308839 0.000781817 1.91407e-08 -1.743e-07 -1.02992e-07 0.0005 1.46608e-07 
191 1 0.0267969 0.0194305 0.0158057 0.000354251 0.020731 -0.00166794 -8.0559e-10 5.27136e-09 -1.08974e-08 0.0005 1.46608e-07 
193 1 0.0253029 0.02045 0.00590518 -2.07804e-14 -3.34651e-15 3.38791e-13 3.57342e-22 -3.83977e-21 0 0.0005 1.46608e-07 
194 1 0.038447 0.0208861 0.0153084 0.00165701 0.013032 -0.00727526 2.49761e-10 -1.28562e-08 1.60125e-09 0.0005 1.46608e-07 
197 1 0.0414966 0.0172732 0.0075817 0.000253476 -0.0177456 0.00685487 2.57028e-05 0.000133147 -8.57061e-05 0.0005 1.46608e-07 
200 1 0.0282624 0.0148164 0.0119628 0.000886499 0.00300055 0.0185565 -6.77901e-09 1.23511e-08 1.7568e-08 0.0005 1.46608e-07 
205 1 0.0383457 0.0197753 0.00590075 5.8345e-15 -2.89997e-14 1.43232e-13 -3.18895e-19 -1.30602e-19 -1.29173e-20 0.0005 1.46608e-07 
215 1 0.026935 0.0188837 0.00598981 1.43031e-14 2.30425e-15 -2.33189e-13 6.61744e-23 -3.52379e-22 0 0.0005 1.46608e-07 
225 1 0.0303679 0.0211331 0.00770049 0.000606316 -0.0169311 -0.00847702 -4.32979e-09 -1.75572e-08 2.46332e-09 0.0005 1.46608e-07 
226 1 0.0456927 0.01582 0.0143921 0.00100708 0.0128822 0.0137576 -5.70081e-09 2.09644e-08 4.10391e-09 0.0005 1.46608e-07 
227 1 0.0337208 0.0158279 0.0143441 0.00233678 0.0109992 0.0131691 -2.01612e-08 3.09082e-08 2.81285e-08 0.0005 1.46608e-07 
229 1 0.0436534 0.0232274 0.0125165 -1.31779e-05 0.00460575 -0.0183186 -5.75986e-06 1.82347e-06 6.04557e-06 0.0005 1.46608e-07 
232 1 0.0221996 0.00109062 0.0435188 9.58743e-317 9.68145e-317 4.97437e-14 0 0 0 0.0005 1.46608e-07 
237 1 0.0434271 0.023364 0.0116111 0.00229795 0.00193101 -0.0164776 5.40466e-05 -1.86117e-05 -8.91845e-06 0.0005 1.46608e-07 
241 1 0.0340088 0.0150959 0.0131188 0.000235785 0.00789288 0.0180866 1.00016e-09 1.06009e-08 -1.80148e-11 0.0005 1.46608e-07 
242 1 0.0325908 0.0201677 0.0156241 0.000405011 0.0189066 -0.00582303 2.68426e-07 -1.99076e-07 1.36131e-07 0.0005 1.46608e-07 
247 1 0.0468832 0.0153777 0.00950517 0.00197591 -0.00715685 0.0149203 -1.2187e-08 -1.06995e-08 1.78414e-08 0.0005 1.46608e-07 
252 1 0.0557897 0.0172859 0.0059806 9.82305e-15 1.33336e-14 1.8999e-13 2.32405e-20 -2.09641e-20 2.11758e-22 0.0005 1.46608e-07 
253 1 0.0895649 0.0187731 0.00575225 -1.31369e-14 1.88961e-14 2.53779e-13 -2.1156e-19 2.94344e-20 -1.27055e-20 0.0005 1.46608e-07 
256 1 0.0315812 0.0232974 0.0122031 0.0017035 0.00290653 -0.0196784 -3.25237e-08 4.17523e-08 -4.57334e-08 0.0005 1.46608e-07 
257 1 0.0312172 0.023341 0.0107619 0.00148637 -0.00126572 -0.0125734 4.84201e-09 1.33184e-10 4.56076e-08 0.0005 1.46608e-07 
258 1 0.0421249 0.0199157 0.00726579 0.000399177 -0.0202838 -0.00386671 -4.5598e-09 -1.45114e-08 5.21158e-09 0.0005 1.46608e-07 
260 1 0.108836 0.0200055 0.00584234 7.67115e-16 -1.27806e-15 -6.97316e-15 0 4.07635e-21 -6.35275e-22 0.0005 1.46608e-07 
268 1 0.0256234 0.0233061 0.012401 0.000318712 0.00387121 -0.0198792 -2.81882e-09 -7.73103e-09 -1.40125e-08 0.0005 1.46608e-07 
269 1 0.0352606 0.0163328 0.00817258 0.000387324 -0.0109478 0.00888465 9.8682e-09 1.52164e-08 -1.5843e-08 0.0005 1.46608e-07 
270 1 0.0320339 0.0224025 0.01418 0.00123289 0.0111077 -0.0149057 -1.11017e-08 9.16845e-09 -2.55235e-08 0.0005 1.46608e-07 
271 1 0.0368611 0.0225741 0.00916338 0.00129962 -0.00802646 -0.0125547 4.91696e-09 -7.85494e-09 7.36837e-09 0.0005 1.46608e-07 
274 1 0.0213707 0.0231844 0.0131482 0.0289383 0.0351262 -0.0836702 0 0 -1.43822e-06 0.0005 1.46608e-07 
275 1 0.0322599 0.0216962 0.0148793 0.00017531 0.0192077 -0.012935 6.69313e-10 -4.34208e-09 -1.2516e-08 0.0005 1.46608e-07 
277 1 0.0278291 0.0155939 0.0139951 -0.000181962 0.0115176 0.0188084 -2.71823e-09 1.54455e-08 1.31061e-08 0.0005 1.46608e-07 
284 1 0.00937694 0.00505359 0.0435188 -9.68799e-317 -9.69932e-317 9.23294e-13 0 0 0 0.0005 1.46608e-07 
288 1 0.0457039 0.018685 0.00600217 -6.98207e-15 -3.90026e-14 -2.68502e-13 -1.20239e-20 3.70577e-22 2.11758e-22 0.0005 1.46608e-07 
291 1 0.0293469 0.0165576 0.00797166 0.000563461 -0.0164645 0.0120774 -8.40575e-09 -8.77846e-09 1.785e-08 0.0005 1.46608e-07 
294 1 0.0239893 0.0191578 0.00594089 -8.46704e-15 -1.73077e-14 -5.67593e-14 2.77139e-20 -1.00585e-21 -4.02341e-21 0.0005 1.46608e-07 
299 1 0.0254808 0.018723 0.00589902 -2.079e-14 -3.29498e-15 3.38791e-13 -2.36905e-21 -1.29977e-19 -1.48231e-21 0.0005 1.46608e-07 
300 1 0.0399617 0.0152492 0.0134548 0.00105237 0.00943941 0.0166798 -1.12623e-08 2.33212e-08 1.33835e-08 0.0005 1.46608e-07 
