ITEM: TIMESTEP
2600000
ITEM: NUMBER OF ATOMS
285
ITEM: BOX BOUNDS ff ff ff
-0.02 0.43
-0.02 0.06
-0.02 0.07
ITEM: ATOMS id type x y z vx vy vz fx fy fz radius mass 
1 1 0.0218471 0.0234137 0.0148722 0.00193653 0.00270841 0.000730102 -8.94825e-06 1.83156e-05 5.9876e-05 0.0005 1.46608e-07 
2 1 0.016363 0.0216606 0.0161037 0.00800148 0.0155911 -0.00910824 6.02494e-06 -4.98247e-06 1.70865e-06 0.0005 1.46608e-07 
3 1 0.0259065 0.018027 0.0169189 -0.00041004 -0.0248041 0.0236403 0 0 -1.43822e-06 0.0005 1.46608e-07 
4 1 0.0190502 0.0240298 0.0145431 -0.00100167 -0.00205157 0.00327244 -6.77248e-05 -2.23376e-05 5.70732e-05 0.0005 1.46608e-07 
5 1 0.0245337 0.0197193 0.0158979 0.00812729 0.0131236 -0.00132355 2.47484e-05 3.44995e-05 -1.73478e-05 0.0005 1.46608e-07 
6 1 0.0209406 0.0203432 0.00744752 0.000156235 -0.0203637 -0.00692121 -6.04653e-10 -1.33268e-08 5.32205e-09 0.0005 1.46608e-07 
7 1 0.0211687 0.0213137 0.00787707 0.00049443 -0.0148128 -0.00964132 5.91866e-09 2.74955e-08 4.44952e-08 0.0005 1.46608e-07 
9 1 0.0209577 0.0179833 0.00736488 -0.00147799 -0.02371 0.00337149 2.88187e-08 6.75469e-08 -4.9623e-08 0.0005 1.46608e-07 
10 1 0.0227925 0.0224793 0.0142759 0.000277276 0.0123249 -0.014049 -1.91382e-06 3.77197e-06 -9.61494e-07 0.0005 1.46608e-07 
11 1 0.0190076 0.0147936 0.0129458 0.00246462 0.00639669 -0.00241664 0 0 -1.43822e-06 0.0005 1.46608e-07 
12 1 0.0197327 0.0185296 0.0159106 0.00635226 -0.00662765 -0.000659654 -2.06764e-07 7.29942e-07 1.68873e-07 0.0005 1.46608e-07 
13 1 0.0175474 0.0240283 0.0129455 -0.000319381 0.000998997 -0.00550155 1.77428e-06 3.92565e-06 2.82851e-05 0.0005 1.46608e-07 
14 1 0.0196082 0.0228309 0.0175867 0.00758719 -0.00700086 -0.00802327 0 0 -1.43822e-06 0.0005 1.46608e-07 
15 1 0.00938048 0.0183393 0.00587271 3.64599e-15 5.37004e-16 -3.69009e-14 -8.99973e-22 7.17993e-21 0 0.0005 1.46608e-07 
16 1 0.0205082 0.0245892 0.0180262 0.0154902 -0.00451619 0.00049215 -5.78902e-07 -4.4808e-07 -1.17187e-06 0.0005 1.46608e-07 
17 1 0.0207819 0.0241872 0.0141437 0.00341416 -0.000429628 0.00172502 -7.86489e-06 4.92254e-06 -2.8401e-06 0.0005 1.46608e-07 
18 1 0.0223626 0.0158758 0.0156827 -0.000755337 -0.00146612 9.28604e-05 -2.72409e-08 -1.02982e-07 -4.64481e-08 0.0005 1.46608e-07 
19 1 0.0184917 0.0240594 0.0127864 -0.000562945 -0.000238812 -0.000917223 8.84035e-06 6.11231e-06 9.46195e-06 0.0005 1.46608e-07 
20 1 0.0264557 0.0181193 0.00729656 0.000156186 -0.0209257 0.00424495 -6.7761e-10 -3.07643e-09 1.16649e-08 0.0005 1.46608e-07 
21 1 0.0221578 0.0194401 0.0167603 0.000457538 0.0111436 -0.00220036 1.37004e-06 -7.95676e-08 -5.0581e-07 0.0005 1.46608e-07 
22 1 0.0193003 0.0192579 0.0168591 0.000186234 0.00138866 -0.00151183 0 0 -1.43822e-06 0.0005 1.46608e-07 
23 1 0.0179211 0.0244161 0.0138136 -6.28478e-05 0.00082733 -0.000944776 -1.62913e-05 1.60431e-06 3.2508e-06 0.0005 1.46608e-07 
24 1 0.0247697 0.0220305 0.0160938 -0.00145335 0.00281407 -0.00183001 4.23838e-06 1.83583e-05 4.56236e-06 0.0005 1.46608e-07 
25 1 0.0235773 0.0195931 0.0160318 0.000818792 0.0226878 0.00219806 2.06745e-05 7.13132e-06 1.98482e-05 0.0005 1.46608e-07 
26 1 0.0206616 0.0161638 0.00828703 0.00120864 -0.0088946 0.00637181 -2.81127e-08 -3.2211e-08 5.11167e-08 0.0005 1.46608e-07 
27 1 0.0211603 0.0226739 0.0153073 0.00612431 -0.000581559 0.00390435 -2.17327e-06 -1.206e-06 -3.54201e-06 0.0005 1.46608e-07 
28 1 0.0226551 0.0229624 0.013494 0.00134998 0.0100723 -0.0189073 -6.06873e-07 3.28154e-06 -4.4487e-06 0.0005 1.46608e-07 
29 1 0.0247687 0.0210375 0.0164891 -0.0107896 0.000102776 0.0294306 -9.84241e-06 0.000188762 -0.000184305 0.0005 1.46608e-07 
30 1 0.0200035 0.0238867 0.0147418 0.0018096 -0.000786577 0.0112162 -8.92948e-05 -3.12443e-05 4.32992e-05 0.0005 1.46608e-07 
31 1 0.0188574 0.0245129 0.0136266 0.0001275 0.00116229 -0.000613194 -3.59219e-06 -1.59193e-06 5.3443e-06 0.0005 1.46608e-07 
32 1 0.0233084 0.0155231 0.0154096 5.51494e-05 0.00187066 -0.00166406 1.99282e-07 -3.21878e-07 7.52762e-07 0.0005 1.46608e-07 
33 1 0.0138723 0.0162407 0.0149399 0.00408835 -0.00478809 -0.00361124 -4.55049e-08 -1.83374e-07 -1.09787e-07 0.0005 1.46608e-07 
34 1 0.0219743 0.0222498 0.0157039 0.00252197 -0.00446715 0.00150538 2.68596e-06 7.45221e-06 -4.57707e-06 0.0005 1.46608e-07 
35 1 0.0229118 0.0221448 0.0151629 -0.000671111 0.0147169 -0.0136183 8.41074e-07 5.73719e-06 -6.33769e-06 0.0005 1.46608e-07 
36 1 0.0198199 0.0243699 0.0138541 -0.0012766 1.98481e-05 0.00105043 -5.95055e-06 -1.8332e-06 -1.70174e-06 0.0005 1.46608e-07 
37 1 0.0225164 0.0236174 0.0139596 -0.00302196 3.44966e-05 0.0024912 -5.60692e-06 1.11769e-06 9.64175e-06 0.0005 1.46608e-07 
38 1 0.0198599 0.0156522 0.0143619 -0.0019877 0.000809803 0.000505375 -1.49203e-07 -6.58496e-08 5.53443e-08 0.0005 1.46608e-07 
39 1 0.0226456 0.0229698 0.015143 0.00194975 0.00652882 -0.00446894 7.41966e-06 1.41076e-05 4.27671e-05 0.0005 1.46608e-07 
40 1 0.0214064 0.0239507 0.0134005 0.00167951 -0.000852536 0.000868609 8.73779e-06 1.4764e-07 -5.5738e-06 0.0005 1.46608e-07 
41 1 0.0202953 0.023325 0.0168983 0.000590096 -0.00106464 0.00466255 -2.66029e-07 -4.3197e-06 -9.42041e-07 0.0005 1.46608e-07 
42 1 0.0245946 0.0153984 0.0137854 0.00184238 0.0102524 0.0145631 -1.75088e-08 2.33527e-08 3.12119e-08 0.0005 1.46608e-07 
43 1 0.0167529 0.0238824 0.013465 0.00141465 0.000324 -0.00506256 -2.20837e-05 -6.88366e-06 -5.01936e-06 0.0005 1.46608e-07 
44 1 0.0194837 0.0216357 0.0169161 0.00643012 -0.00252094 0.0106018 1.33084e-05 1.62935e-05 -8.38859e-06 0.0005 1.46608e-07 
45 1 0.0227383 0.023832 0.0148313 0.000319075 0.00206675 -0.000418102 -7.7547e-08 -6.87288e-07 1.29618e-05 0.0005 1.46608e-07 
46 1 0.0243452 0.0160873 0.0146782 0.000792682 0.0142526 0.021685 8.17334e-08 -4.34085e-08 -7.11643e-08 0.0005 1.46608e-07 
47 1 0.0202851 0.0222168 0.0167655 0.00407352 0.00361855 0.00246399 -3.01273e-07 -3.10886e-07 -3.55851e-07 0.0005 1.46608e-07 
48 1 0.00254313 0.0507505 0.0352089 -0.116307 0.121665 -0.740885 0 0 -1.43822e-06 0.0005 1.46608e-07 
49 1 0.0208358 0.0236772 0.0160239 -0.0060177 0.000565879 -0.020725 -6.39139e-06 2.08213e-06 -2.45006e-07 0.0005 1.46608e-07 
50 1 0.0217867 0.0241482 0.0142514 0.000494617 0.000421946 0.000414478 4.18486e-06 2.6356e-08 5.07054e-06 0.0005 1.46608e-07 
51 1 0.0191083 0.0146283 0.0119592 0.00619668 0.00127034 -0.00658036 -5.40906e-07 -7.28682e-08 -2.06103e-08 0.0005 1.46608e-07 
52 1 0.0212657 0.0149323 0.0155039 -0.00269184 -0.00310385 0.00149953 2.05196e-08 -1.55978e-08 4.73128e-07 0.0005 1.46608e-07 
53 1 0.0234376 0.0233973 0.0153771 0.000803294 0.00225014 -0.00134442 5.81119e-06 -3.27409e-07 6.66673e-06 0.0005 1.46608e-07 
54 1 0.0192171 0.0231215 0.0162805 -0.000563426 -0.00200646 0.0101739 0 0 -1.43822e-06 0.0005 1.46608e-07 
56 1 0.0231379 0.019286 0.0168861 -0.00615508 -0.0125555 0.0244362 0 0 -1.43822e-06 0.0005 1.46608e-07 
57 1 0.0183471 0.0236294 0.0140465 -0.00227235 0.00146246 -0.00589776 -8.88615e-05 -1.32382e-05 9.03701e-05 0.0005 1.46608e-07 
58 1 0.0222256 0.0233477 0.0121463 0.000203405 0.00344531 -0.020924 -3.20917e-09 -1.40254e-08 4.31727e-09 0.0005 1.46608e-07 
59 1 0.0242194 0.0166546 0.0155124 -0.000215586 0.0328846 0.0155082 0 0 -1.43822e-06 0.0005 1.46608e-07 
60 1 0.0174625 0.0151687 0.0161156 0.00168594 -0.0052974 -0.000524919 -7.07969e-07 -9.09206e-07 -4.6372e-08 0.0005 1.46608e-07 
61 1 0.0196091 0.0247202 0.0176049 0.0113359 0.00226759 0.0021699 -3.00853e-07 1.05407e-07 -1.601e-06 0.0005 1.46608e-07 
62 1 0.0204861 0.0241118 0.0132341 3.27635e-05 -0.00351106 0.00369956 -2.04516e-05 -4.29823e-06 1.2406e-05 0.0005 1.46608e-07 
63 1 0.0241467 0.0227929 0.0158196 -0.000913206 0.000862192 -0.000451155 5.46782e-06 -6.60791e-06 4.17393e-06 0.0005 1.46608e-07 
64 1 0.0247576 0.0212322 0.0153772 0.000956204 0.00333472 0.00744022 -3.90494e-05 -5.36342e-05 -0.000145553 0.0005 1.46608e-07 
65 1 0.0223712 0.0145214 0.0141481 -0.000563005 -0.000454762 0.000196432 -1.6601e-08 -5.63906e-08 -1.40599e-07 0.0005 1.46608e-07 
66 1 0.0257132 0.018558 0.0160531 0.00167098 -0.009321 0.00333839 3.09698e-05 -6.16968e-05 -1.99148e-05 0.0005 1.46608e-07 
67 1 0.0237778 0.0223867 0.0144139 0.000573352 0.00453085 -0.00451082 -2.63914e-06 6.03129e-06 -8.17059e-06 0.0005 1.46608e-07 
68 1 0.0248567 0.0181087 0.0159978 0.00338888 -0.0121458 -0.00209358 8.6525e-06 1.66382e-05 -5.54129e-07 0.0005 1.46608e-07 
69 1 0.0237407 0.0172496 0.0165977 -0.0377863 -0.0334606 0.0250202 0 0 -1.43822e-06 0.0005 1.46608e-07 
70 1 0.025375 0.0216225 0.0167375 -0.00148872 -0.000747242 0.00356646 1.32307e-06 3.35415e-05 -2.07627e-05 0.0005 1.46608e-07 
71 1 0.0202504 0.0172513 0.00755321 0.000729274 -0.0185613 0.00824016 -2.9983e-09 -3.96813e-09 1.38233e-08 0.0005 1.46608e-07 
73 1 0.0232066 0.0222527 0.0167185 -0.00343954 0.00264265 0.0106582 9.57398e-06 -3.23274e-06 2.68789e-06 0.0005 1.46608e-07 
74 1 0.0196951 0.0241469 0.0127685 0.000444793 0.00114655 0.000150916 1.93022e-05 5.13844e-06 -1.31215e-05 0.0005 1.46608e-07 
75 1 0.018586 0.0171556 0.0163554 0.00221029 0.0042522 -0.00556246 0 0 -1.43822e-06 0.0005 1.46608e-07 
76 1 0.0192951 0.0148063 0.010711 0.000102953 -0.00451494 0.0211225 -2.38959e-10 1.06231e-08 7.34254e-09 0.0005 1.46608e-07 
78 1 0.0208417 0.0240144 0.0124201 -0.00403712 -0.0053065 0.00263093 -3.43907e-06 1.13418e-06 -4.87197e-06 0.0005 1.46608e-07 
79 1 0.0178382 0.0142571 0.0159476 0.0123679 0.00743596 -0.0234518 2.4143e-07 3.33205e-07 -6.89017e-07 0.0005 1.46608e-07 
80 1 0.0172932 0.0231778 0.0131363 0.000589737 0.00486421 -0.012375 -1.02285e-05 -7.28386e-06 3.24358e-05 0.0005 1.46608e-07 
81 1 0.016761 0.0142086 0.0135468 0.00031539 7.8312e-05 -0.000430696 -9.94108e-08 1.26151e-07 3.1386e-08 0.0005 1.46608e-07 
82 1 0.0165555 0.023685 0.0150039 -0.00305042 0.00439202 -0.00205564 1.3757e-05 3.71293e-06 -1.76989e-05 0.0005 1.46608e-07 
83 1 0.0212033 0.0237359 0.016989 0.000627332 0.00150462 -0.0483614 0 0 -1.43822e-06 0.0005 1.46608e-07 
84 1 0.0199675 0.0145754 0.0124679 0.00259937 0.00050352 -0.0021024 -1.91036e-06 4.78134e-07 -2.27545e-06 0.0005 1.46608e-07 
85 1 0.0205319 0.0186761 0.00721459 0.000161354 -0.0207209 0.00267977 -5.28579e-10 -6.38293e-09 9.47877e-09 0.0005 1.46608e-07 
86 1 0.0219381 0.0215527 0.0171571 -0.0306796 -0.0116563 -0.0219312 0 0 -1.43822e-06 0.0005 1.46608e-07 
87 1 0.0207133 0.0194876 0.00721442 0.00110182 -0.0192152 -0.00275068 -1.45832e-08 -6.88702e-08 9.86776e-09 0.0005 1.46608e-07 
88 1 0.0251859 0.0204212 0.0157271 0.0123657 0.00283381 -0.000447452 1.72509e-05 -5.12947e-06 5.94323e-06 0.0005 1.46608e-07 
89 1 0.0249893 0.0148118 0.0121089 0.000751229 0.00371076 0.0191143 2.64433e-08 -3.24269e-08 -1.28839e-07 0.0005 1.46608e-07 
90 1 0.0176115 0.0188404 0.0169259 -0.0126302 -0.0121967 0.00133395 0 0 -1.43822e-06 0.0005 1.46608e-07 
91 1 0.0191959 0.0238764 0.0132835 0.00106596 0.00526107 -0.000613586 6.74943e-06 -1.84273e-06 1.50005e-05 0.0005 1.46608e-07 
92 1 0.0208389 0.0182128 0.0166885 0.00874386 0.0154211 0.00408667 -8.66889e-07 7.37785e-07 4.94365e-07 0.0005 1.46608e-07 
93 1 0.0184208 0.0245479 0.0175235 0.00247167 8.4951e-05 -0.00103226 -1.40299e-06 -1.96544e-07 -6.55585e-07 0.0005 1.46608e-07 
95 1 0.0209445 0.0237448 0.0149928 0.00218278 0.000809755 0.000644244 -1.09449e-05 1.06187e-05 6.01436e-06 0.0005 1.46608e-07 
96 1 0.0221605 0.0233977 0.0112665 -5.74476e-05 -0.0003405 -0.0195434 8.46595e-09 3.41625e-08 8.28438e-08 0.0005 1.46608e-07 
97 1 0.0171397 0.0241354 0.0143373 0.000229957 -0.00011998 -0.00201633 -7.89096e-06 4.3941e-07 -1.77216e-05 0.0005 1.46608e-07 
98 1 0.0148991 0.022052 0.0169302 0.000724269 -0.00204918 0.00123498 1.96957e-06 -2.3867e-07 8.9899e-07 0.0005 1.46608e-07 
99 1 0.0184129 0.0149121 0.0164461 -0.0059939 0.00501961 -0.0074565 0 0 -1.43822e-06 0.0005 1.46608e-07 
100 1 0.0230567 0.023318 0.0121982 8.96218e-05 0.00373172 -0.0206894 -1.09223e-09 -8.88134e-09 -6.02899e-09 0.0005 1.46608e-07 
101 1 0.0165296 0.0183734 0.0167165 0.00109042 -0.0505949 -0.0113535 -2.36192e-08 6.06868e-07 2.1807e-07 0.0005 1.46608e-07 
102 1 0.0232754 0.0231481 0.0144397 0.000953471 0.00417389 -0.00294179 -2.35129e-06 -8.46375e-06 1.98578e-07 0.0005 1.46608e-07 
103 1 0.0170918 0.0234323 0.0122388 0.000360233 0.00297636 -0.00767617 1.59459e-05 -7.86409e-07 -1.64742e-06 0.0005 1.46608e-07 
104 1 0.0209032 0.0146455 0.0121225 0.00103804 0.00100312 -0.00147267 2.90449e-06 -1.82406e-08 6.92918e-07 0.0005 1.46608e-07 
105 1 0.0217362 0.0229592 0.00965255 0.000605043 -0.0065919 -0.0151762 5.42988e-09 -1.80531e-09 2.82388e-08 0.0005 1.46608e-07 
106 1 0.0193363 0.0236768 0.0154565 0.00371028 0.00885597 0.00938498 -7.84311e-06 4.43908e-06 -3.07164e-06 0.0005 1.46608e-07 
108 1 0.0203993 0.0187271 0.00600944 -6.31794e-15 2.81883e-15 -5.78008e-14 2.99109e-21 -7.38507e-20 -4.23516e-21 0.0005 1.46608e-07 
109 1 0.0233607 0.0204871 0.0156716 -0.000958193 0.0195656 -0.00368777 -8.21202e-06 5.20484e-05 -2.73237e-05 0.0005 1.46608e-07 
110 1 0.0198548 0.0159883 0.00846401 0.00355566 -0.00403475 0.00272632 -2.57401e-07 -7.95142e-07 9.77676e-07 0.0005 1.46608e-07 
111 1 0.0184761 0.0152735 0.0147734 0.00403826 0.00504468 0.00330944 3.59042e-07 4.6681e-08 -1.02433e-06 0.0005 1.46608e-07 
112 1 0.0178119 0.022516 0.0143386 0.00183219 0.000480452 -0.0211952 6.53399e-05 -0.00029388 0.00038498 0.0005 1.46608e-07 
113 1 0.0196771 0.0153304 0.00934016 0.000608601 -0.00869537 0.0122942 9.76643e-10 1.36273e-08 -1.67809e-08 0.0005 1.46608e-07 
114 1 0.0167061 0.0239217 0.0168643 -0.000257571 -0.00221454 -0.000484331 -3.04768e-06 -5.1948e-07 -5.05209e-06 0.0005 1.46608e-07 
115 1 0.0175751 0.0234452 0.0115402 0.000371855 0.000824102 -0.00123308 6.64529e-06 -5.53546e-07 -2.63562e-06 0.0005 1.46608e-07 
116 1 0.0190508 0.0160921 0.0148177 0.00254935 0.00441248 0.00469337 -1.17714e-07 -2.10302e-07 -1.28988e-07 0.0005 1.46608e-07 
117 1 0.0173455 0.020736 0.0156286 0.0102321 -9.30191e-05 -0.00298897 -1.29359e-05 4.74812e-06 -2.64675e-06 0.0005 1.46608e-07 
118 1 0.0181 0.0177982 0.0157627 0.000616616 0.0129186 0.00375369 -3.54287e-08 1.75941e-08 9.45261e-08 0.0005 1.46608e-07 
120 1 0.0239846 0.0177545 0.0157687 -0.000823828 0.0127917 0.00208581 -2.43185e-05 5.77753e-05 5.84957e-06 0.0005 1.46608e-07 
121 1 0.0215134 0.0142694 0.0136749 -0.000236833 -0.000827215 0.00137398 -2.14392e-07 -7.58916e-08 6.74648e-08 0.0005 1.46608e-07 
122 1 0.0270326 0.020682 0.00751659 0.000294385 -0.0192737 -0.0076836 -1.23908e-09 -1.16085e-08 7.61602e-09 0.0005 1.46608e-07 
123 1 0.0193362 0.0226814 0.0153646 0.00215378 -0.00175619 0.00620252 2.3892e-06 7.09538e-06 -1.91751e-05 0.0005 1.46608e-07 
124 1 0.0237736 0.0179979 0.018306 0.000875596 -0.185215 0.0608689 0 0 -1.43822e-06 0.0005 1.46608e-07 
125 1 0.0266969 0.0193941 0.00717756 0.00123155 -0.0164309 -0.00193982 3.93794e-09 8.20301e-09 1.38562e-08 0.0005 1.46608e-07 
126 1 0.0188567 0.0223978 0.0170885 0.00486141 -0.00297907 -0.0081049 3.87681e-06 1.51593e-06 6.0807e-08 0.0005 1.46608e-07 
127 1 0.0216142 0.0167995 0.0162301 -0.000126099 0.00788477 0.00375124 -2.98637e-08 2.00475e-08 1.6585e-08 0.0005 1.46608e-07 
128 1 0.0227934 0.0235551 0.0181675 -0.0133819 0.0209547 0.0114938 -1.97387e-07 -4.6887e-07 -1.3978e-06 0.0005 1.46608e-07 
129 1 0.0182815 0.0181308 0.0166881 0.0105606 -0.0027631 0.00786578 4.19082e-08 2.60845e-07 -6.60363e-07 0.0005 1.46608e-07 
130 1 0.0185428 0.0191034 0.0174938 -0.00207076 -0.010098 -0.00483518 0 0 -1.43822e-06 0.0005 1.46608e-07 
131 1 0.0181712 0.0211794 0.0167447 0.00431897 0.00370492 -0.0013973 1.00897e-07 1.18933e-07 -1.53009e-06 0.0005 1.46608e-07 
132 1 0.016509 0.0205891 0.0165607 0.00187314 0.00914866 -0.00225288 0 0 -1.43822e-06 0.0005 1.46608e-07 
133 1 0.0254612 0.0172463 0.0164101 -0.0304598 0.00687693 -0.0633562 -3.83097e-07 1.32024e-07 -8.14165e-07 0.0005 1.46608e-07 
134 1 0.02025 0.0156951 0.0156994 0.00723172 -0.00298851 -0.0104103 -1.54892e-06 2.32941e-06 9.94067e-07 0.0005 1.46608e-07 
135 1 0.0262096 0.0170955 0.00764716 0.00265313 -0.0111035 0.00464165 3.66966e-07 2.36369e-07 -3.7111e-07 0.0005 1.46608e-07 
136 1 0.023445 0.0225202 0.0155493 -0.00199622 0.00629291 -0.00593259 8.50519e-06 -4.77832e-06 7.99548e-07 0.0005 1.46608e-07 
137 1 0.0173529 0.021505 0.0162708 0.00504282 -0.00800463 0.000791457 2.53804e-06 -3.46414e-06 -3.92159e-06 0.0005 1.46608e-07 
138 1 0.0191937 0.0163969 0.0157636 0.00476196 0.0105636 0.0024771 0 0 -1.43822e-06 0.0005 1.46608e-07 
139 1 0.0137343 0.0220609 0.0158127 -0.000235827 0.000796321 0.00177321 3.17616e-06 1.58612e-06 -1.83612e-06 0.0005 1.46608e-07 
141 1 0.0256651 0.0206871 0.01654 -0.00034314 -0.00128311 -0.00141318 -2.03908e-05 2.04639e-05 -2.65112e-05 0.0005 1.46608e-07 
142 1 0.0273571 0.0219188 0.00830991 0.000721454 -0.0152184 -0.0134671 -8.88362e-09 -1.88232e-08 -3.72048e-09 0.0005 1.46608e-07 
143 1 0.0193069 0.0206786 0.0166886 0.00066685 -0.00561723 0.00385543 -9.15166e-07 -1.67231e-05 -5.33942e-07 0.0005 1.46608e-07 
144 1 0.0196462 0.021962 0.0159854 0.0103522 -0.00148157 0.00807024 1.77618e-06 -4.48004e-06 6.72002e-06 0.0005 1.46608e-07 
145 1 0.0171345 0.0229492 0.0155399 0.00449641 -0.00552772 -0.00285105 -5.50918e-06 8.92885e-06 3.76818e-06 0.0005 1.46608e-07 
146 1 0.0187007 0.0152385 0.0137935 0.001785 0.0002346 -0.00159729 -3.29222e-08 -4.16138e-07 -7.30591e-07 0.0005 1.46608e-07 
147 1 0.0196852 0.0138956 0.0131449 0.00146522 -0.000787021 -0.00376123 0 0 -1.43822e-06 0.0005 1.46608e-07 
148 1 0.0164702 0.0193861 0.0167587 -0.00717923 -0.0326143 -0.000459236 0 0 -1.43822e-06 0.0005 1.46608e-07 
149 1 0.0136313 0.0192514 0.0164509 -0.00461817 -0.0110086 -0.038295 0 0 -1.43822e-06 0.0005 1.46608e-07 
150 1 0.019175 0.0164343 0.0167653 0.00591132 0.0134565 0.00455644 0 0 -1.43822e-06 0.0005 1.46608e-07 
151 1 0.0194715 0.025109 0.0185164 0.00519083 0.00220397 0.00364253 -2.87852e-07 -7.77001e-07 -1.35165e-06 0.0005 1.46608e-07 
152 1 0.0167188 0.0228376 0.0138102 -0.000153162 0.0117495 -0.0194526 5.16316e-06 -1.79707e-05 2.35072e-05 0.0005 1.46608e-07 
153 1 0.0176747 0.0235806 0.0149748 -0.0189995 0.00880429 0.0235021 0 0 -1.43822e-06 0.0005 1.46608e-07 
154 1 0.016748 0.0243964 0.0186055 -0.0125506 -0.000480342 -0.00973435 8.18298e-07 1.82543e-06 3.98358e-06 0.0005 1.46608e-07 
155 1 0.0156989 0.0233617 0.0153914 -0.00167342 0.00134424 3.70165e-05 1.15785e-05 5.09897e-07 -1.17834e-05 0.0005 1.46608e-07 
156 1 0.0199125 0.014275 0.0163891 -0.0122048 0.00232962 -0.0116203 -3.83924e-08 7.55048e-08 -4.70488e-07 0.0005 1.46608e-07 
157 1 0.0160276 0.0236321 0.0141379 0.00341513 0.00130886 -0.00248479 7.12919e-08 3.83278e-08 -2.95127e-08 0.0005 1.46608e-07 
158 1 0.0172844 0.0237906 0.0160592 0.00178569 -0.00166371 -0.0027778 8.00108e-07 -1.18873e-06 -2.42732e-06 0.0005 1.46608e-07 
159 1 0.0177058 0.0209032 0.0180443 0.0159419 0.00573357 -0.0123052 0 0 -1.43822e-06 0.0005 1.46608e-07 
160 1 0.0180737 0.023088 0.0159629 0.00621242 0.00383295 0.00631637 -3.09706e-06 -2.51287e-05 -1.11678e-07 0.0005 1.46608e-07 
161 1 0.0159432 0.0144623 0.0140636 -3.52906e-05 7.22054e-05 -2.22224e-06 1.11482e-08 2.52899e-07 -1.21888e-08 0.0005 1.46608e-07 
162 1 0.0217376 0.0232788 0.0158575 -0.00265501 -0.000799877 -0.00422808 5.22897e-06 6.53569e-06 -4.51373e-06 0.0005 1.46608e-07 
163 1 0.0186824 0.0223008 0.0160592 0.00671328 0.00505257 -0.00364172 5.54752e-06 -1.10974e-06 1.02863e-05 0.0005 1.46608e-07 
164 1 0.0175871 0.023205 0.016829 0.000107162 0.000927186 0.00580011 2.31291e-06 -2.44381e-06 -1.35992e-05 0.0005 1.46608e-07 
165 1 0.020126 0.0211418 0.0163271 -0.000763394 0.0225955 -0.00977092 4.4297e-07 4.88025e-07 -2.3154e-07 0.0005 1.46608e-07 
166 1 0.0240543 0.0206728 0.0161634 -0.0270394 0.0218548 0.0380355 -5.68923e-05 0.000292194 -0.000130689 0.0005 1.46608e-07 
167 1 0.025935 0.0193025 0.0169078 -0.0107634 -0.00948589 -0.014678 0 0 -1.43822e-06 0.0005 1.46608e-07 
168 1 0.024275 0.0220789 0.0152588 -0.0010441 0.00239036 -0.00168839 -1.89727e-06 -1.90295e-06 -3.34011e-05 0.0005 1.46608e-07 
169 1 0.0146737 0.0217728 0.015997 -0.000493088 -0.00208121 0.00108295 7.33372e-06 6.953e-06 -2.06539e-06 0.0005 1.46608e-07 
170 1 0.0171362 0.0215953 0.0151586 0.00110893 0.00727303 -0.00164923 1.77198e-05 2.07236e-05 -1.41697e-05 0.0005 1.46608e-07 
171 1 0.0185891 0.0231779 0.0149232 -0.00882138 0.00675314 0.0252264 -2.56463e-06 4.57114e-07 -5.06899e-06 0.0005 1.46608e-07 
173 1 0.0187701 0.0188148 0.0159409 0.0138103 -0.012902 -0.00171171 2.28592e-05 -4.73245e-05 -2.09461e-05 0.0005 1.46608e-07 
174 1 0.016424 0.0232943 0.0127517 0.00312016 0.00267455 -0.00819376 -3.04212e-06 2.87021e-06 -1.30628e-05 0.0005 1.46608e-07 
175 1 0.0169104 0.0224565 0.0146984 -0.000496552 0.0159751 -0.0237627 1.28909e-05 -0.000117659 0.000140266 0.0005 1.46608e-07 
176 1 0.0156861 0.023095 0.0171457 -0.00177524 0.000303949 -0.000157836 -9.51109e-07 -7.55387e-07 5.22849e-06 0.0005 1.46608e-07 
177 1 0.0160754 0.0238732 0.0176386 -0.0015408 -0.000340446 0.00307054 3.47779e-06 -2.48054e-06 -1.0068e-06 0.0005 1.46608e-07 
178 1 0.0158698 0.01605 0.0158026 0.0029086 -0.0010145 -0.000856972 -4.53395e-08 -1.02223e-07 -4.36228e-08 0.0005 1.46608e-07 
179 1 0.0186864 0.0138785 0.0131951 0.000599175 0.00439444 -0.0122711 8.67899e-08 3.34772e-07 -1.0155e-06 0.0005 1.46608e-07 
180 1 0.020052 0.015014 0.0133692 0.00478812 -0.00223168 -0.00178019 -5.60249e-08 -4.27914e-07 -7.40707e-07 0.0005 1.46608e-07 
181 1 0.0233367 0.0213192 0.0154765 -0.00174295 0.0147133 -0.00825506 -1.56918e-05 5.72803e-05 -5.25951e-05 0.0005 1.46608e-07 
182 1 0.0185921 0.0239352 0.0160722 6.00446e-05 0.00583805 0.007509 1.91271e-05 -1.7994e-06 -1.4359e-06 0.0005 1.46608e-07 
183 1 0.0165672 0.0153246 0.0156946 0.00274897 0.00028275 -0.00114217 4.74099e-07 1.42135e-07 7.21018e-07 0.0005 1.46608e-07 
184 1 0.0162129 0.0225102 0.0155064 0.00817022 -0.00345837 0.00154877 0 0 -1.43822e-06 0.0005 1.46608e-07 
185 1 0.0187328 0.0226684 0.0140669 0.000159427 0.0100798 -0.0188591 8.4427e-06 -4.81703e-05 6.27611e-05 0.0005 1.46608e-07 
186 1 0.0218766 0.0206877 0.0165097 0.00140096 0.00996463 -0.00209408 3.52634e-06 -2.39806e-05 9.1276e-06 0.0005 1.46608e-07 
187 1 0.0206353 0.0220019 0.0158456 0.0110693 0.00256316 -0.00353546 -1.99865e-06 5.6151e-06 -4.56841e-06 0.0005 1.46608e-07 
189 1 0.0177671 0.0187944 0.0159381 0.000741156 0.0194075 0.0011866 -1.6586e-07 1.86292e-07 -4.01525e-07 0.0005 1.46608e-07 
190 1 0.0184532 0.0196453 0.0163974 0.0157607 -0.0211688 0.01615 -1.94357e-05 3.0614e-05 1.55035e-05 0.0005 1.46608e-07 
191 1 0.0205011 0.0149273 0.0146132 -0.00185789 -0.00340387 -0.0108036 2.58571e-07 -1.74843e-07 -8.88223e-08 0.0005 1.46608e-07 
192 1 0.019105 0.0177585 0.0157494 0.00121439 0.0162709 0.00566165 8.66441e-07 2.40845e-07 4.77466e-06 0.0005 1.46608e-07 
193 1 0.0179538 0.0221576 0.0167325 0.000848887 0.00428946 -0.00754425 -3.87681e-06 -1.51593e-06 -2.93725e-06 0.0005 1.46608e-07 
194 1 0.0189005 0.0219085 0.0149011 -0.00278504 0.0130002 -0.00766269 0 0 -1.43822e-06 0.0005 1.46608e-07 
196 1 0.0229366 0.0229472 0.0173853 -0.0188869 0.0180501 -0.00126483 9.79525e-07 -1.67507e-06 -1.77274e-06 0.0005 1.46608e-07 
197 1 0.0211949 0.022628 0.0163881 0.00506252 0.000782535 0.0029803 5.65135e-06 1.90398e-06 2.62192e-06 0.0005 1.46608e-07 
199 1 0.0174524 0.0224587 0.0175446 0.00285359 0.000999556 -0.00237121 6.8763e-07 -9.18212e-07 -8.94854e-09 0.0005 1.46608e-07 
200 1 0.0225385 0.0228479 0.0162727 -0.00765999 0.00439449 0.00232045 1.19784e-06 2.82198e-06 -2.92106e-06 0.0005 1.46608e-07 
201 1 0.0214852 0.0147649 0.0145429 -0.000659803 -0.00218877 0.0021128 -5.92883e-08 1.21053e-07 1.2519e-07 0.0005 1.46608e-07 
202 1 0.0179313 0.024712 0.0183812 -0.0206032 -0.00813905 -0.00976505 3.89712e-07 -3.882e-07 -1.13894e-06 0.0005 1.46608e-07 
203 1 0.0208735 0.014587 0.0163564 -0.0153539 -0.000526484 -0.00349392 -3.94874e-07 -2.31242e-07 6.09639e-07 0.0005 1.46608e-07 
204 1 0.0213915 0.0224588 0.0186326 -0.0287674 -0.0042169 0.086676 0 0 -1.43822e-06 0.0005 1.46608e-07 
205 1 0.018255 0.0166303 0.0152418 0.00123358 0.0143292 0.00979581 7.89568e-08 1.3276e-07 1.90363e-08 0.0005 1.46608e-07 
206 1 0.0170022 0.022434 0.0163872 -0.00207165 -0.00362803 0.00525042 -1.59416e-06 3.24525e-06 -5.31953e-06 0.0005 1.46608e-07 
208 1 0.0250157 0.019741 0.0168514 -0.0179487 0.0111873 -0.00388841 0 0 -1.43822e-06 0.0005 1.46608e-07 
209 1 0.0216496 0.018605 0.0172756 -0.038362 0.0188126 -0.0477141 0 0 -1.43822e-06 0.0005 1.46608e-07 
210 1 0.0174933 0.0199482 0.0164167 0.00575565 0.0212369 -0.0168109 0 0 -1.43822e-06 0.0005 1.46608e-07 
211 1 0.020873 0.0214327 0.0169645 -0.000488231 0.00498279 0.00480332 0 0 -1.43822e-06 0.0005 1.46608e-07 
212 1 0.0191095 0.0243263 0.0168333 0.0085768 0.00159783 0.00268352 1.2401e-06 -8.81883e-07 -1.7715e-06 0.0005 1.46608e-07 
213 1 0.0225376 0.0232565 0.0104525 9.32112e-07 -0.00487834 -0.0199931 -5.73495e-09 -1.02951e-08 1.3615e-08 0.0005 1.46608e-07 
214 1 0.0206639 0.0137648 0.0139023 -0.0104216 -0.000641541 -0.00343279 1.95102e-07 5.06636e-07 -1.0435e-06 0.0005 1.46608e-07 
215 1 0.0249933 0.016283 0.0162723 -0.0109896 -0.0130849 -0.0117272 -2.58845e-07 2.45883e-07 -1.0736e-06 0.0005 1.46608e-07 
216 1 0.0207712 0.0141824 0.0129992 -0.00258726 0.000760683 -0.0030404 2.77877e-08 4.7341e-07 -8.31946e-07 0.0005 1.46608e-07 
217 1 0.0163958 0.0232173 0.0161948 0.00732331 0.009561 0.00173789 1.97126e-07 -6.73966e-07 -1.2367e-06 0.0005 1.46608e-07 
218 1 0.0185509 0.0234645 0.0169546 0.000592066 -0.00762989 -0.00763879 0 0 -1.43822e-06 0.0005 1.46608e-07 
219 1 0.0202709 0.0147051 0.0155606 -0.00553263 -0.00181845 -0.011238 1.81827e-06 -6.13636e-07 -3.17322e-07 0.0005 1.46608e-07 
220 1 0.0221887 0.0235696 0.0170448 0.00183384 -0.0147881 -0.0302587 0 0 -1.43822e-06 0.0005 1.46608e-07 
221 1 0.0132121 0.0209421 0.0155289 0.00364585 0.00617442 -0.00224978 4.51551e-09 7.07975e-07 -2.82846e-07 0.0005 1.46608e-07 
223 1 0.0214576 0.0215242 0.0161581 -0.000672231 0.00352317 0.00185205 -4.44207e-06 2.11062e-05 -7.2282e-06 0.0005 1.46608e-07 
224 1 0.0141887 0.0227476 0.0152459 -0.00043298 -0.00130468 -1.50983e-05 3.97002e-06 1.09877e-06 1.3081e-05 0.0005 1.46608e-07 
225 1 0.0149443 0.0231841 0.0147666 -0.000285476 0.000959645 0.00195253 2.15707e-07 -6.16609e-06 -8.72313e-06 0.0005 1.46608e-07 
226 1 0.0255239 0.019523 0.0159575 0.00489443 -0.01002 0.00288819 -1.80143e-06 -4.66167e-05 5.20649e-06 0.0005 1.46608e-07 
227 1 0.0200489 0.0218325 0.0177279 0.00854666 -0.0123798 -0.0297974 0 0 -1.43822e-06 0.0005 1.46608e-07 
228 1 0.0202699 0.0190328 0.0167598 0.005133 0.0155595 0.000549197 0 0 -1.43822e-06 0.0005 1.46608e-07 
229 1 0.0169138 0.014677 0.0144169 0.0011409 0.000919464 -0.00104647 -5.40232e-07 -7.71673e-07 -1.27394e-07 0.0005 1.46608e-07 
230 1 0.0187468 0.0155019 0.0157086 0.00707026 0.00627224 0.0022364 0 0 -1.43822e-06 0.0005 1.46608e-07 
231 1 0.0213172 0.0153682 0.0171102 0.117576 -0.00271118 -0.0367466 0 0 -1.43822e-06 0.0005 1.46608e-07 
232 1 0.0157332 0.0223816 0.0163918 0.00341069 0.00644503 -8.98354e-08 3.49331e-07 -2.87916e-06 2.40996e-06 0.0005 1.46608e-07 
233 1 0.0164439 0.021859 0.0171401 0.00114548 -0.0124123 -0.0252196 0 0 -1.43822e-06 0.0005 1.46608e-07 
234 1 0.0152312 0.0154426 0.0153284 0.000695846 0.000319205 0.000763185 1.52717e-09 -1.21337e-07 -4.79923e-07 0.0005 1.46608e-07 
235 1 0.0188784 0.0213204 0.0160519 0.0040423 0.00648825 -0.00271418 1.01861e-07 -2.01613e-06 -4.15251e-06 0.0005 1.46608e-07 
236 1 0.0185365 0.0229143 0.0179368 0.00244537 -0.0026152 -0.00526741 0 0 -1.43822e-06 0.0005 1.46608e-07 
237 1 0.0199472 0.0164408 0.015106 0.00248529 0.00761611 0.00469151 -3.31189e-07 -1.39586e-06 -5.67664e-07 0.0005 1.46608e-07 
238 1 0.0166774 0.0229664 0.0171687 -0.00142327 -0.000293388 0.00701882 -1.96529e-06 -3.91221e-06 -6.78673e-06 0.0005 1.46608e-07 
239 1 0.019221 0.0237709 0.0176575 0.0107321 -0.00903685 -0.000335017 0 0 -1.43822e-06 0.0005 1.46608e-07 
240 1 0.0188634 0.0211195 0.0175058 -0.00319821 0.000999461 -0.00267411 -1.39165e-05 -5.97394e-06 1.62017e-05 0.0005 1.46608e-07 
241 1 0.0228656 0.0205333 0.0165803 6.92893e-05 0.0244925 -0.0072344 -7.80183e-08 -2.43557e-07 3.9871e-08 0.0005 1.46608e-07 
242 1 0.0192845 0.0180714 0.0166818 0.0132249 0.0112591 0.00799428 -2.1929e-07 1.5683e-06 4.44097e-06 0.0005 1.46608e-07 
243 1 0.0192881 0.0146804 0.014877 0.0173189 0.00130768 -0.0397191 0 0 -1.43822e-06 0.0005 1.46608e-07 
244 1 0.0231003 0.0213804 0.0171954 0.021202 -0.0108372 -0.00422793 -1.3741e-06 -2.23951e-06 2.5403e-06 0.0005 1.46608e-07 
246 1 0.0170998 0.0193572 0.0176217 -0.0110935 -0.0261299 -0.00997578 0 0 -1.43822e-06 0.0005 1.46608e-07 
247 1 0.0231996 0.014841 0.0146865 -0.000304918 0.000342101 -0.000596027 -1.80297e-07 2.22504e-07 -4.73271e-07 0.0005 1.46608e-07 
248 1 0.0213648 0.0159574 0.0157429 0.000326591 0.00809077 0.00585822 -1.79974e-09 -1.56418e-07 -1.07401e-07 0.0005 1.46608e-07 
249 1 0.0181294 0.0212907 0.0153402 0.00680197 0.000682007 2.6138e-05 -4.65897e-06 -1.11609e-05 -5.64471e-06 0.0005 1.46608e-07 
250 1 0.0202448 0.0229594 0.0150245 -0.0012673 0.00231321 0.00489908 2.24048e-05 -1.60094e-05 1.96886e-05 0.0005 1.46608e-07 
251 1 0.0149646 0.0226835 0.0177027 0.000393401 0.000143605 -0.000269462 -1.58397e-07 9.64414e-07 -2.55246e-07 0.0005 1.46608e-07 
252 1 0.0199292 0.0171433 0.0158173 0.0054695 0.0241974 -0.0108199 -7.39592e-09 8.53853e-07 2.71098e-06 0.0005 1.46608e-07 
253 1 0.0138878 0.0211996 0.0162969 -0.000589171 -0.000349343 0.00202125 7.18441e-07 1.31068e-06 -4.58287e-07 0.0005 1.46608e-07 
254 1 0.0184608 0.0202631 0.0171839 -0.0120535 0.0121528 -0.0126403 1.34012e-06 -2.32938e-05 -2.92111e-06 0.0005 1.46608e-07 
255 1 0.0178439 0.0241715 0.0167956 0.0106508 0.00116594 0.000479161 -2.24313e-07 2.17388e-07 -1.53264e-06 0.0005 1.46608e-07 
256 1 0.0199225 0.0254006 0.0193606 0.00421477 0.00208563 0.00696942 -3.50084e-07 -5.65163e-07 -1.48317e-06 0.0005 1.46608e-07 
257 1 0.0200451 0.0200037 0.0166702 0.00895505 0.00993961 -0.00323387 -1.56926e-06 3.19008e-06 3.01587e-06 0.0005 1.46608e-07 