ITEM: TIMESTEP
200000
ITEM: NUMBER OF ATOMS
75
ITEM: BOX BOUNDS ff ff ff
-0.02 0.43
-0.02 0.06
-0.02 0.07
ITEM: ATOMS id type x y z vx vy vz fx fy fz radius mass 
1 1 0.0208081 0.0189042 0.0167342 -4.32276e-09 0.0246239 0.000876163 -1.27002e-14 7.53658e-10 -1.6785e-08 0.0005 1.46608e-07 
2 1 0.0162751 0.0174794 0.0165251 -0.000297721 0.00196359 0.00441127 0 0 -1.43822e-06 0.0005 1.46608e-07 
3 1 0.0230384 0.0201199 0.024368 0 -0 -0.03 0 0 0 0.0005 1.46608e-07 
4 1 0.01626 0.0168583 0.0231503 0 -0 -0.03 0 0 0 0.0005 1.46608e-07 
5 1 0.0200143 0.0154491 0.014302 0.00439105 -0.0529406 -0.0332812 0 0 -1.43822e-06 0.0005 1.46608e-07 
6 1 0.0148222 0.01773 0.0210644 0 -0 -0.03 0 0 0 0.0005 1.46608e-07 
7 1 0.0167826 0.0142033 0.0135472 0.000557538 -0.000736133 0.00163296 6.81781e-09 -1.02178e-08 2.32544e-08 0.0005 1.46608e-07 
8 1 0.023253 0.0189513 0.0241318 0 -0 -0.03 0 0 0 0.0005 1.46608e-07 
9 1 0.0204675 0.0240791 0.0130201 3.50594e-05 -0.000260787 8.81604e-05 1.14479e-08 9.66373e-09 5.3598e-09 0.0005 1.46608e-07 
10 1 0.0180782 0.022722 0.0178191 0 0 -0.113684 0 0 -1.43822e-06 0.0005 1.46608e-07 
11 1 0.015043 0.01872 0.0249772 0 -0 -0.03 0 0 0 0.0005 1.46608e-07 
12 1 0.0186536 0.0230434 0.0134856 0.00607201 -0.00384404 0.00950922 0 0 -1.43822e-06 0.0005 1.46608e-07 
13 1 0.0146937 0.0230815 0.0148969 0.00369614 0.00124203 -0.00228083 5.10274e-08 -8.35935e-08 -1.17258e-07 0.0005 1.46608e-07 
14 1 0.0170254 0.0230763 0.0247019 0 -0 -0.03 0 0 0 0.0005 1.46608e-07 
15 1 0.0205274 0.0170344 0.0256657 0 -0 -0.03 0 0 0 0.0005 1.46608e-07 
16 1 0.0163958 0.0165892 0.0241934 0 -0 -0.03 0 0 0 0.0005 1.46608e-07 
17 1 0.0215681 0.023765 0.0139884 0.0730424 -0.00492647 -0.0151748 0 0 -1.43822e-06 0.0005 1.46608e-07 
18 1 0.0187346 0.0220105 0.0148199 -0.00020612 0.0509341 -0.0485934 2.54881e-09 2.57077e-07 -3.79582e-07 0.0005 1.46608e-07 
19 1 0.0171238 0.0224213 0.0196026 0 -0 -0.03 0 0 0 0.0005 1.46608e-07 
20 1 0.0203035 0.0146145 0.0119506 0.00320858 -0.00239272 0.0181322 0 0 -1.43822e-06 0.0005 1.46608e-07 
21 1 0.0179728 0.0206413 0.0156487 5.40952e-10 0.0191686 -0.00728902 7.54799e-16 -4.81036e-09 -1.27702e-08 0.0005 1.46608e-07 
22 1 0.0186229 0.015221 0.0275093 0 -0 -0.03 0 0 0 0.0005 1.46608e-07 
23 1 0.0172321 0.0195895 0.018685 0 -0 -0.03 0 0 0 0.0005 1.46608e-07 
24 1 0.0192011 0.0146137 0.0119516 0.00457755 -0.00140979 0.00240841 6.887e-08 1.96966e-07 -2.7303e-07 0.0005 1.46608e-07 
25 1 0.0197927 0.014647 0.0128163 -0.083432 -0.0410864 0.0271369 0 0 -1.43822e-06 0.0005 1.46608e-07 
26 1 0.0170528 0.0209794 0.0271698 0 -0 -0.03 0 0 0 0.0005 1.46608e-07 
27 1 0.018439 0.0233788 0.0125137 0.00451703 0.00190399 -0.00218551 1.00422e-07 5.70877e-08 -2.65526e-06 0.0005 1.46608e-07 
28 1 0.0194779 0.0164716 0.0221537 0 -0 -0.03 0 0 0 0.0005 1.46608e-07 
29 1 0.0170201 0.0185949 0.0227801 0 -0 -0.03 0 0 0 0.0005 1.46608e-07 
30 1 0.0197057 0.0231833 0.0207186 0 -0 -0.03 0 0 0 0.0005 1.46608e-07 
31 1 0.0176572 0.0201024 0.0227676 0 -0 -0.03 0 0 0 0.0005 1.46608e-07 
32 1 0.0188849 0.0222907 0.0202568 0 -0 -0.03 0 0 0 0.0005 1.46608e-07 
33 1 0.0216576 0.0168999 0.016293 -0.00152924 0.00591685 0.00417813 7.04904e-09 1.20378e-07 5.49982e-08 0.0005 1.46608e-07 
34 1 0.0169124 0.0234107 0.0123648 0.0005129 3.10008e-05 -0.000894604 1.92726e-07 2.10495e-08 -3.80358e-07 0.0005 1.46608e-07 
35 1 0.0186023 0.019719 0.0210395 0 -0 -0.03 0 0 0 0.0005 1.46608e-07 
36 1 0.0210152 0.0225245 0.0154498 0.000342223 0.0577729 -0.0459795 4.05658e-09 1.35182e-07 -2.16056e-07 0.0005 1.46608e-07 
37 1 0.0194373 0.0161727 0.0235451 0 -0 -0.03 0 0 0 0.0005 1.46608e-07 
38 1 0.0187283 0.0173021 0.0218884 0 -0 -0.03 0 0 0 0.0005 1.46608e-07 
39 1 0.021847 0.0181461 0.0187627 0 -0 -0.03 0 0 0 0.0005 1.46608e-07 
40 1 0.0215874 0.0208967 0.0164387 6.50383e-08 0.0231651 -0.00894696 8.63322e-15 -6.78618e-09 -1.75459e-08 0.0005 1.46608e-07 
41 1 0.0165344 0.0186388 0.0209174 0 -0 -0.03 0 0 0 0.0005 1.46608e-07 
42 1 0.0203516 0.0173587 0.0190474 0 -0 -0.03 0 0 0 0.0005 1.46608e-07 
43 1 0.014813 0.0203778 0.0165824 -2.43509e-09 0.0238838 -0.00637419 -4.21974e-15 -4.45964e-09 -1.62584e-08 0.0005 1.46608e-07 
44 1 0.0186277 0.0172272 0.0256135 0 -0 -0.03 0 0 0 0.0005 1.46608e-07 
45 1 0.0220518 0.0226353 0.0153817 -0.00133771 0.0535026 -0.048211 2.02978e-09 2.12317e-07 -3.0713e-07 0.0005 1.46608e-07 
46 1 0.0199787 0.0216175 0.0258397 0 -0 -0.03 0 0 0 0.0005 1.46608e-07 
47 1 0.0222889 0.0184249 0.0238978 0 -0 -0.03 0 0 0 0.0005 1.46608e-07 
48 1 0.0204544 0.0148469 0.026499 0 -0 -0.03 0 0 0 0.0005 1.46608e-07 
49 1 0.017687 0.0174519 0.0190889 0 -0 -0.03 0 0 0 0.0005 1.46608e-07 
50 1 0.0213116 0.0210464 0.022385 0 -0 -0.03 0 0 0 0.0005 1.46608e-07 
51 1 0.0157658 0.0180083 0.0252645 0 -0 -0.03 0 0 0 0.0005 1.46608e-07 
52 1 0.0193919 0.0241079 0.0129152 1.12973e-05 0.0012198 -0.000245211 1.41552e-09 -5.36544e-08 4.19871e-08 0.0005 1.46608e-07 
53 1 0.0228944 0.0203849 0.0182735 0 0 -0.0633197 0 0 -1.43822e-06 0.0005 1.46608e-07 
54 1 0.0182867 0.0221328 0.0214257 0 -0 -0.03 0 0 0 0.0005 1.46608e-07 
55 1 0.0221414 0.0221204 0.0268569 0 -0 -0.03 0 0 0 0.0005 1.46608e-07 
56 1 0.0234002 0.018439 0.0261411 0 -0 -0.03 0 0 0 0.0005 1.46608e-07 
57 1 0.0155233 0.0198826 0.0195294 0 -0 -0.03 0 0 0 0.0005 1.46608e-07 
58 1 0.017967 0.0240695 0.0130614 -8.64097e-05 -0.000938537 -0.00105096 -7.00094e-08 1.89995e-07 -1.38335e-06 0.0005 1.46608e-07 
59 1 0.0206845 0.0179397 0.0239692 0 -0 -0.03 0 0 0 0.0005 1.46608e-07 
60 1 0.0177393 0.0234849 0.0118073 -8.9676e-05 0.00106351 -0.00202969 2.97272e-07 7.18278e-07 7.28393e-07 0.0005 1.46608e-07 
61 1 0.0151577 0.0188721 0.016758 8.15281e-08 0.0247443 0.000872329 2.9564e-15 6.52348e-10 -1.8678e-08 0.0005 1.46608e-07 
62 1 0.0215346 0.021448 0.0185716 0 -0 -0.03 0 0 0 0.0005 1.46608e-07 
63 1 0.0220639 0.0204455 0.0278369 0 -0 -0.03 0 0 0 0.0005 1.46608e-07 
64 1 0.0203067 0.0156342 0.0212018 0 -0 -0.03 0 0 0 0.0005 1.46608e-07 
65 1 0.0205328 0.015653 0.0229116 0 -0 -0.03 0 0 0 0.0005 1.46608e-07 
66 1 0.022049 0.0186735 0.0255383 0 -0 -0.03 0 0 0 0.0005 1.46608e-07 
67 1 0.0223433 0.0183719 0.0274114 0 -0 -0.03 0 0 0 0.0005 1.46608e-07 
68 1 0.0222009 0.0210111 0.0234827 0 -0 -0.03 0 0 0 0.0005 1.46608e-07 
69 1 0.0174018 0.0210962 0.0244392 0 -0 -0.03 0 0 0 0.0005 1.46608e-07 
70 1 0.0233506 0.0205377 0.0205734 0 -0 -0.03 0 0 0 0.0005 1.46608e-07 
71 1 0.0169242 0.0194627 0.0277031 0 -0 -0.03 0 0 0 0.0005 1.46608e-07 
72 1 0.015107 0.01696 0.0271215 0 -0 -0.03 0 0 0 0.0005 1.46608e-07 
73 1 0.0183301 0.0220896 0.0262795 0 -0 -0.03 0 0 0 0.0005 1.46608e-07 
74 1 0.0181511 0.0229725 0.020468 0 -0 -0.03 0 0 0 0.0005 1.46608e-07 
75 1 0.0180391 0.0196979 0.0260069 0 -0 -0.03 0 0 0 0.0005 1.46608e-07 
