ITEM: TIMESTEP
25400000
ITEM: NUMBER OF ATOMS
107
ITEM: BOX BOUNDS ff ff ff
-0.02 0.43
-0.02 0.06
-0.02 0.07
ITEM: ATOMS id type x y z vx vy vz fx fy fz radius mass 
1 1 0.0208322 0.0140928 0.0132325 -0.000660615 -0.000694365 0.00127592 -1.03558e-08 -1.18077e-08 2.21019e-08 0.0005 1.46608e-07 
2 1 0.0242546 0.020213 0.00583854 -9.08584e-15 -1.46378e-15 1.48131e-13 -1.32349e-23 -4.46678e-23 0 0.0005 1.46608e-07 
4 1 0.0182605 0.0146132 0.0119524 0.00440465 -0.00120964 0.00202887 5.31273e-08 7.54312e-08 -1.40017e-07 0.0005 1.46608e-07 
5 1 0.0552529 0.0189972 0.0058882 -1.33584e-17 -1.80667e-17 -2.57131e-16 6.61744e-23 -6.61744e-23 0 0.0005 1.46608e-07 
15 1 0.00938048 0.0183393 0.00587271 3.64478e-15 5.47624e-16 -3.69009e-14 1.00585e-21 -3.81165e-21 0 0.0005 1.46608e-07 
16 1 0.0260391 0.0196534 0.00594246 2.09856e-14 3.38085e-15 -3.42138e-13 -6.61744e-23 1.32349e-22 0 0.0005 1.46608e-07 
17 1 0.0443082 0.0211491 0.00776644 0.000709975 -0.0197717 -0.0125244 -7.24152e-09 4.33629e-08 -4.06412e-10 0.0005 1.46608e-07 
18 1 0.0366849 0.0218066 0.0435188 -9.6879e-317 9.73506e-317 2.68131e-13 0 0 0 0.0005 1.46608e-07 
20 1 0.0493698 0.0173066 0.00754684 0.00144037 -0.0139104 0.00593948 3.91318e-09 1.76208e-08 7.2391e-10 0.0005 1.46608e-07 
24 1 0.0430435 0.0160506 0.00843718 0.000532243 -0.0135666 0.014422 -4.89206e-09 -2.64449e-09 1.87343e-08 0.0005 1.46608e-07 
25 1 0.0339249 0.0173116 0.00624552 -7.14608e-16 -9.42491e-15 -2.80667e-14 1.76553e-20 -7.43801e-20 2.41404e-20 0.0005 1.46608e-07 
27 1 0.000591717 0.0149731 0.0435188 9.71467e-317 9.75789e-317 -8.23806e-13 0 0 0 0.0005 1.46608e-07 
28 1 0.0471016 0.0176504 0.0155454 0.00213256 0.014148 0.00414876 1.60053e-06 -1.03079e-05 -3.39399e-06 0.0005 1.46608e-07 
32 1 0.0364748 0.0208476 0.00623738 4.37162e-15 -1.48262e-14 6.83466e-14 7.94093e-23 4.76456e-22 2.11758e-22 0.0005 1.46608e-07 
33 1 0.0324016 0.0215305 0.00792558 0.00108606 -0.0120009 -0.00842817 -6.43361e-09 -1.32245e-08 1.00419e-08 0.0005 1.46608e-07 
37 1 0.049528 0.0194806 0.00601095 5.7706e-15 -1.24799e-14 -1.29437e-13 -1.65966e-20 -8.28504e-21 0 0.0005 1.46608e-07 
41 1 0.0283199 0.0210124 0.0153768 0.000322915 0.019799 -0.00876507 1.53264e-09 -1.74439e-09 -1.09122e-08 0.0005 1.46608e-07 
44 1 0.0377446 0.0187928 0.00724467 -0.000317335 -0.0218318 0.000838715 8.01556e-09 -5.12444e-08 1.49926e-08 0.0005 1.46608e-07 
47 1 0.0234658 0.0164189 0.0150807 0.00378897 0.00350415 0.00302354 -5.34147e-10 -3.6724e-09 1.03697e-08 0.0005 1.46608e-07 
49 1 0.003617 0.0285782 0.0435188 -9.68849e-317 -9.75601e-317 2.88878e-12 0 0 0 0.0005 1.46608e-07 
52 1 0.0860181 0.0183082 0.00577269 -1.22434e-15 3.67084e-14 1.26768e-13 -1.84213e-20 4.76456e-22 0 0.0005 1.46608e-07 
57 1 0.0177449 0.0174882 0.00600758 2.62569e-15 1.02269e-14 2.12813e-14 -4.97632e-21 -2.0117e-21 1.48231e-21 0.0005 1.46608e-07 
59 1 0.0478146 0.015243 0.0134383 6.17839e-05 0.00856656 0.0218415 -1.30051e-09 1.10286e-08 -2.14631e-09 0.0005 1.46608e-07 
63 1 0.0260447 0.0202055 0.00735991 2.509e-05 -0.0206703 -0.00646897 -1.57407e-11 -7.77246e-09 9.50027e-09 0.0005 1.46608e-07 
65 1 0.112778 0.0179068 0.0059233 8.23232e-16 3.43202e-15 1.42035e-14 4.89691e-22 6.29981e-21 -6.35275e-22 0.0005 1.46608e-07 
67 1 0.047318 0.0168547 0.015217 0.000471043 0.0172132 0.011638 1.15842e-06 4.64568e-07 -1.71442e-06 0.0005 1.46608e-07 
68 1 0.0452523 0.0173614 0.00620617 -3.12827e-15 -1.74652e-14 -1.20236e-13 1.94553e-21 3.44107e-22 -2.11758e-22 0.0005 1.46608e-07 
73 1 0.0349285 0.0181778 0.00592251 6.38932e-16 6.72175e-15 2.00027e-14 -8.31813e-21 2.48816e-21 -2.11758e-22 0.0005 1.46608e-07 
74 1 0.0391756 0.0233466 0.0108187 0.00129295 -0.00190041 -0.0136745 -8.25627e-10 -2.16682e-08 3.02645e-08 0.0005 1.46608e-07 
76 1 0.0315813 0.0179572 0.0073188 0.00139955 -0.0182976 0.00578087 2.28334e-08 2.33431e-07 -2.08722e-06 0.0005 1.46608e-07 
79 1 0.0551402 0.017971 0.00596606 -2.82239e-15 -3.83424e-15 -5.46135e-14 -1.32349e-23 -2.64698e-23 0 0.0005 1.46608e-07 
84 1 0.0406285 0.0199074 0.0156047 -0.00106517 0.0217722 -0.00302495 -3.95544e-09 -7.65473e-09 2.5396e-09 0.0005 1.46608e-07 
87 1 0.0460773 0.0220033 0.0146799 0.000325527 0.0152853 -0.0140522 -5.54001e-10 -1.29589e-09 -1.20652e-08 0.0005 1.46608e-07 
88 1 0.0453069 0.0233685 0.011618 0.000291165 0.0017463 -0.0187044 2.09631e-09 -9.66745e-09 -1.61663e-08 0.0005 1.46608e-07 
89 1 0.0483822 0.0148505 0.0109079 0.000414826 -0.00158853 0.018433 -1.13174e-09 1.09726e-08 1.28723e-08 0.0005 1.46608e-07 
90 1 0.0388466 0.0229157 0.00959998 0.00020985 -0.00919633 -0.0190495 -1.17721e-09 -1.21552e-08 -2.35998e-10 0.0005 1.46608e-07 
92 1 0.045139 0.0232779 0.0106878 0.00127088 -0.00461586 -0.0170084 -1.08364e-08 -1.00279e-08 -2.87879e-08 0.0005 1.46608e-07 
97 1 0.0271503 0.0233384 0.0106924 0.00117751 -0.00230317 -0.0149965 -2.51986e-08 -1.0735e-07 -1.43992e-07 0.0005 1.46608e-07 
103 1 0.0435201 0.017873 0.00745207 0.000541361 -0.0186722 0.00751863 -2.15427e-08 -7.88891e-08 5.0069e-08 0.0005 1.46608e-07 
108 1 0.0214483 0.0168437 0.00645098 -2.38654e-14 5.08815e-14 1.84337e-13 1.31555e-20 -1.837e-20 6.14099e-21 0.0005 1.46608e-07 
109 1 0.0330971 0.0232647 0.0104562 0.0011087 -0.00397848 -0.0110474 2.98456e-06 -7.76026e-06 1.44156e-05 0.0005 1.46608e-07 
112 1 0.041705 0.0155014 0.0139259 0.000591833 0.011716 0.0163574 -4.92125e-09 1.55276e-08 4.72715e-09 0.0005 1.46608e-07 
121 1 0.0586827 0.0172628 0.00598816 1.03799e-14 -2.15388e-14 -2.64999e-13 -4.30134e-22 -9.66147e-22 -2.11758e-22 0.0005 1.46608e-07 
122 1 0.0792478 0.0194315 0.00576454 1.19084e-14 4.01811e-14 1.70229e-13 -3.6887e-19 9.44442e-20 4.02341e-21 0.0005 1.46608e-07 
124 1 0.0236752 0.015697 0.0144212 0.00400388 0.0025407 0.00411674 -6.75006e-10 -6.73862e-09 7.97734e-09 0.0005 1.46608e-07 
125 1 0.049796 0.0190947 0.00719487 0.000531377 -0.0185673 -0.00119518 2.64886e-09 5.59504e-10 1.33761e-08 0.0005 1.46608e-07 
128 1 0.0303903 0.00406748 0.0435188 -9.67556e-317 -9.75879e-317 -3.22607e-12 0 0 0 0.0005 1.46608e-07 
130 1 0.035839 0.0152062 0.0133814 0.000269427 0.00933441 0.0188269 -1.47633e-09 1.24305e-08 5.06849e-10 0.0005 1.46608e-07 
131 1 0.0502792 0.021121 0.00777223 0.000601375 -0.0171247 -0.00843264 -4.95008e-09 -1.90154e-08 1.23961e-09 0.0005 1.46608e-07 
133 1 0.0438472 0.0171169 0.00621343 5.45341e-16 -1.54901e-15 -8.51056e-15 2.60992e-20 -6.56451e-21 2.32934e-21 0.0005 1.46608e-07 
135 1 0.0459628 0.0233719 0.0110844 0.000919001 0.000802212 -0.0068743 -2.01429e-08 5.82416e-09 -1.5373e-07 0.0005 1.46608e-07 
137 1 0.0473953 0.0193073 0.0059321 4.73723e-15 -1.01819e-14 -1.05707e-13 -4.53957e-21 -2.0117e-21 0 0.0005 1.46608e-07 
139 1 0.0396821 0.0230276 0.013225 0.000648012 0.00809337 -0.0161614 -7.47199e-09 -5.75152e-09 -5.13613e-08 0.0005 1.46608e-07 
141 1 0.0362751 0.0147917 0.0114733 5.5902e-05 -0.000614856 0.0216363 -3.68582e-10 1.09873e-08 5.06243e-09 0.0005 1.46608e-07 
142 1 0.050544 0.022053 0.00848783 -0.000449973 -0.0154893 -0.0186949 -1.53177e-08 -1.26473e-09 -2.06018e-08 0.0005 1.46608e-07 
143 1 0.0437441 0.0187304 0.00719647 0.000331531 -0.0190778 0.00258374 -6.18436e-09 -2.67691e-08 1.42263e-08 0.0005 1.46608e-07 
147 1 0.0408895 0.0185889 0.0156965 0.000389669 0.0207478 0.00196961 -2.39084e-09 7.10584e-09 -1.00962e-08 0.0005 1.46608e-07 
149 1 0.0584376 0.0191695 0.00582359 8.12211e-15 -1.6844e-14 -2.07264e-13 6.28657e-20 3.63562e-20 -4.23516e-22 0.0005 1.46608e-07 
150 1 0.0187144 0.0241038 0.012911 -0.00320783 0.000499343 -0.0117004 -7.12488e-06 -2.89186e-07 7.87791e-07 0.0005 1.46608e-07 
157 1 0.019974 0.0146144 0.0119503 6.30272e-06 -0.00151157 0.00251007 4.13243e-11 -1.10581e-08 1.83597e-08 0.0005 1.46608e-07 
158 1 0.020084 0.0201843 0.0061153 5.52628e-15 -2.4543e-15 5.04899e-14 -1.19908e-20 -1.71657e-20 6.35275e-22 0.0005 1.46608e-07 
160 1 0.0475399 0.0159177 0.014415 0.000974186 0.0143804 0.0122238 9.79902e-09 8.98446e-08 5.66344e-08 0.0005 1.46608e-07 
161 1 0.0221348 0.00230077 0.0435188 9.74157e-317 -9.69799e-317 9.23294e-13 0 0 0 0.0005 1.46608e-07 
165 1 0.201805 0.0186174 0.00570934 -3.8561e-20 -8.56408e-22 8.61844e-22 0 0 0 0.0005 1.46608e-07 
166 1 0.0423775 0.0148016 0.0109902 0.000542113 -0.00194581 0.0198541 -3.88749e-09 9.47394e-09 1.32973e-08 0.0005 1.46608e-07 
167 1 0.0295987 0.0156841 0.0142246 0.00131438 0.0091123 0.0134578 3.4668e-09 4.73387e-09 -1.55238e-08 0.0005 1.46608e-07 
173 1 0.0830234 0.0186618 0.00583976 1.16011e-14 3.23508e-14 -1.39059e-13 -6.92449e-20 -5.95041e-20 -1.94818e-20 0.0005 1.46608e-07 
174 1 0.0287621 0.0191869 0.0158289 0.00115951 0.0153019 -0.00192944 -5.19654e-09 1.27553e-07 -2.93644e-08 0.0005 1.46608e-07 
179 1 0.067984 0.0193424 0.00575613 3.90149e-15 7.52334e-15 2.61625e-13 3.92745e-21 1.56172e-21 -2.11758e-22 0.0005 1.46608e-07 
185 1 0.0449001 0.0229539 0.0098068 0.000725805 -0.00801615 -0.0184619 -9.58811e-09 -1.2109e-08 -1.37743e-08 0.0005 1.46608e-07 
186 1 0.0432313 0.0167698 0.00784824 3.22391e-05 -0.0194949 0.0102714 -1.00419e-09 2.58142e-09 1.03985e-08 0.0005 1.46608e-07 
187 1 0.0419006 0.0150823 0.0131664 0.000500452 0.00791069 0.0186797 -3.46522e-09 1.398e-08 6.04631e-09 0.0005 1.46608e-07 
191 1 0.0293343 0.016849 0.0151704 0.000230176 0.0182744 0.0113958 -1.74757e-09 1.26751e-08 -5.00291e-09 0.0005 1.46608e-07 
193 1 0.0253288 0.0204564 0.00590683 9.29105e-15 1.4971e-15 -1.51478e-13 0 -1.45087e-21 0 0.0005 1.46608e-07 
194 1 0.0415065 0.0161942 0.0147358 -2.79988e-05 0.0158287 0.0156346 -1.09004e-09 1.1286e-08 -5.2494e-09 0.0005 1.46608e-07 
197 1 0.0438925 0.0195332 0.00721044 0.00047965 -0.0202211 -0.00291414 -1.34894e-09 -1.16248e-08 6.05717e-09 0.0005 1.46608e-07 
200 1 0.0307242 0.0151638 0.0097141 0.000871241 -0.00770013 0.0188176 -2.02518e-07 3.97023e-08 -9.08226e-07 0.0005 1.46608e-07 
205 1 0.0383457 0.0197753 0.00590075 6.23128e-15 -2.89187e-14 1.43232e-13 -1.29139e-19 -6.88214e-21 3.17637e-21 0.0005 1.46608e-07 
215 1 0.026935 0.0188837 0.00598981 1.43016e-14 2.30705e-15 -2.33189e-13 5.71747e-21 -3.06719e-20 0 0.0005 1.46608e-07 
225 1 0.0326454 0.0224845 0.00880753 0.00112606 -0.0114128 -0.0140182 -8.60223e-08 -3.84359e-07 -2.70063e-07 0.0005 1.46608e-07 
226 1 0.0481121 0.0149316 0.0122221 5.20134e-05 0.00350217 0.021437 4.05531e-10 1.17312e-08 2.4395e-09 0.0005 1.46608e-07 
227 1 0.036965 0.0157216 0.00880866 0.000175691 -0.0132082 0.0163526 -7.21539e-10 3.85974e-09 1.12173e-08 0.0005 1.46608e-07 
229 1 0.0468133 0.0189208 0.0158101 0.000254102 0.0221211 0.00217191 2.32698e-09 3.53928e-09 -1.12383e-08 0.0005 1.46608e-07 
232 1 0.0221996 0.00109062 0.0435188 9.58743e-317 9.68145e-317 4.97437e-14 0 0 0 0.0005 1.46608e-07 
237 1 0.0463318 0.0210048 0.0153543 -0.000178697 0.0184507 -0.00743759 1.80086e-08 1.65036e-08 -9.03569e-08 0.0005 1.46608e-07 
241 1 0.0375122 0.0176945 0.00740131 0.00145907 -0.0168779 0.00508971 -5.20856e-09 1.49807e-08 9.94726e-09 0.0005 1.46608e-07 
242 1 0.035618 0.0157724 0.0142481 -7.17863e-05 0.0134417 0.0186517 -1.65714e-09 8.70754e-09 -5.8283e-09 0.0005 1.46608e-07 
247 1 0.0490647 0.0164593 0.00814372 4.96206e-05 -0.0159518 0.0127717 1.12762e-09 1.93077e-09 1.34004e-08 0.0005 1.46608e-07 
252 1 0.0561606 0.0173315 0.00595822 1.40318e-14 1.90624e-14 2.71525e-13 7.94093e-23 0 0 0.0005 1.46608e-07 
253 1 0.0895649 0.0187731 0.00575225 -1.31166e-14 1.89524e-14 2.53775e-13 6.58303e-20 2.09905e-20 1.90582e-21 0.0005 1.46608e-07 
256 1 0.034258 0.0213659 0.0149618 0.000734173 0.0169936 -0.0114848 -8.95972e-09 1.13751e-08 -2.66982e-08 0.0005 1.46608e-07 
257 1 0.03348 0.0232885 0.0124534 0.000871217 0.00396093 -0.0171162 3.93005e-09 -1.2556e-08 1.90523e-09 0.0005 1.46608e-07 
258 1 0.0446439 0.0224271 0.00881309 0.000177416 -0.0118743 -0.0192553 1.73706e-07 -4.31588e-08 1.0156e-08 0.0005 1.46608e-07 
260 1 0.108836 0.0200055 0.00584234 7.67656e-16 -1.27593e-15 -6.97341e-15 -7.94093e-22 -1.48231e-21 2.11758e-22 0.0005 1.46608e-07 
268 1 0.028124 0.0217464 0.0148347 0.000582554 0.0147995 -0.0129993 -2.7541e-09 4.65422e-10 -1.6058e-08 0.0005 1.46608e-07 
269 1 0.0386262 0.0223513 0.00871704 0.000291134 -0.0112243 -0.0149799 3.02248e-09 -3.83156e-08 -3.5375e-09 0.0005 1.46608e-07 
270 1 0.0345121 0.0203105 0.0155359 0.00103035 0.0166365 -0.00638277 -7.97314e-10 3.95707e-09 -1.09559e-08 0.0005 1.46608e-07 
271 1 0.0404022 0.0207165 0.0154923 0.00161974 0.0112694 -0.00478629 -5.18391e-09 -5.89827e-09 1.5565e-10 0.0005 1.46608e-07 
274 1 0.0249401 0.0156209 0.00886176 0.000569992 -0.0117706 0.0155957 -4.12874e-09 4.80648e-10 1.94483e-08 0.0005 1.46608e-07 
275 1 0.0347117 0.0195007 0.0157858 0.00206682 0.0116571 0.000467637 6.80973e-10 -3.81447e-08 3.76373e-09 0.0005 1.46608e-07 
277 1 0.0303019 0.0147889 0.011292 0.00306364 0.000250213 0.0105516 -1.89711e-08 -1.43723e-08 4.77037e-08 0.0005 1.46608e-07 
284 1 0.00937694 0.00505359 0.0435188 -9.68799e-317 -9.69932e-317 9.23294e-13 0 0 0 0.0005 1.46608e-07 
288 1 0.0457039 0.018685 0.00600217 -6.97997e-15 -3.90029e-14 -2.68502e-13 1.06739e-20 -2.22346e-21 0 0.0005 1.46608e-07 
291 1 0.0319334 0.0198796 0.00732009 0.000115886 -0.0208216 -0.00419827 -6.25515e-10 -6.87045e-09 9.87249e-09 0.0005 1.46608e-07 
294 1 0.0239797 0.0191467 0.00594569 -2.27386e-14 -4.66215e-14 -1.52821e-13 4.39398e-21 -1.58819e-21 -4.23516e-22 0.0005 1.46608e-07 
299 1 0.0254808 0.018723 0.00589902 -2.07799e-14 -3.36421e-15 3.38791e-13 -4.89691e-21 1.46742e-21 -4.23516e-22 0.0005 1.46608e-07 
300 1 0.0427257 0.0152705 0.00962534 0.000243358 -0.00960276 0.0186021 -7.3252e-09 2.67979e-09 9.34564e-09 0.0005 1.46608e-07 
