ITEM: TIMESTEP
10600000
ITEM: NUMBER OF ATOMS
150
ITEM: BOX BOUNDS ff ff ff
-0.02 0.43
-0.02 0.06
-0.02 0.07
ITEM: ATOMS id type x y z vx vy vz fx fy fz radius mass 
1 1 0.0168996 0.0146977 0.0124111 -0.00155614 -0.000236692 0.00256454 -2.23311e-07 -4.57185e-08 4.96137e-07 0.0005 1.46608e-07 
2 1 0.0224535 0.0185336 0.0159162 4.17939e-05 0.0227926 0.00279654 3.32193e-07 -1.12157e-06 -6.164e-07 0.0005 1.46608e-07 
4 1 0.0167931 0.0214111 0.0152805 0.00407709 0.00542493 -0.00149296 1.57773e-07 -5.22799e-08 4.16867e-07 0.0005 1.46608e-07 
5 1 0.0309777 0.0216677 0.00802964 0.000349589 -0.0160808 -0.0136092 1.59479e-09 -6.30953e-09 6.67795e-09 0.0005 1.46608e-07 
11 1 0.0229062 0.0235765 0.0146497 -0.00113383 0.00085568 -0.000417047 -1.22828e-06 2.26517e-06 -6.5555e-07 0.0005 1.46608e-07 
13 1 0.0204686 0.0243817 0.0137181 -0.000285639 0.000398047 -0.000754151 -2.12661e-06 2.55394e-07 -1.99922e-06 0.0005 1.46608e-07 
15 1 0.00938048 0.0183393 0.00587271 3.64642e-15 5.40961e-16 -3.69008e-14 -7.67624e-22 4.61236e-21 0 0.0005 1.46608e-07 
16 1 0.0225004 0.0150292 0.0133927 0.00391276 0.00358011 0.00659575 -2.99607e-07 -4.61035e-07 -6.20139e-07 0.0005 1.46608e-07 
17 1 0.0291541 0.0149944 0.0101981 -0.000149424 -0.00752407 0.0202774 -1.57638e-07 -1.02566e-08 -2.01357e-09 0.0005 1.46608e-07 
18 1 0.0366849 0.0218066 0.0435188 -9.6879e-317 9.73506e-317 2.68131e-13 0 0 0 0.0005 1.46608e-07 
19 1 0.0242263 0.0223805 0.0155446 -0.00131109 0.000780727 -0.00122963 1.43652e-06 -1.44866e-06 1.30083e-06 0.0005 1.46608e-07 
20 1 0.0339649 0.0165349 0.0149774 0.000969089 0.010627 0.00893553 -8.87127e-10 -3.94243e-08 -2.6708e-08 0.0005 1.46608e-07 
23 1 0.0193082 0.0242754 0.0137594 0.0135651 -0.00752837 0.0319935 0 0 -1.43822e-06 0.0005 1.46608e-07 
24 1 0.0278795 0.0169175 0.0151822 0.00020533 0.0179726 0.0109663 -4.79836e-09 1.86245e-08 -6.51748e-09 0.0005 1.46608e-07 
25 1 0.0238601 0.0158562 0.0145941 0.00278266 0.00551243 0.00971299 5.52664e-07 3.45257e-07 -7.8817e-07 0.0005 1.46608e-07 
27 1 0.0199889 0.023779 0.015385 -0.00243107 0.00183212 0.00520971 -9.39048e-07 1.21333e-06 9.90054e-07 0.0005 1.46608e-07 
28 1 0.0312965 0.022723 0.00915734 0.0014284 -0.0097636 -0.013914 2.18556e-07 6.29974e-07 6.83228e-07 0.0005 1.46608e-07 
31 1 0.0209515 0.0238201 0.0143901 -0.000471304 -0.000628546 0.00138958 0 0 -1.43822e-06 0.0005 1.46608e-07 
32 1 0.0202116 0.0232413 0.0105288 0.000125203 -0.0012351 -0.00586415 -2.04307e-09 -2.94966e-08 -1.58426e-07 0.0005 1.46608e-07 
33 1 0.019701 0.0216252 0.00800107 0.0118098 -0.00709931 -0.00277764 -0.000346834 0.000523099 -7.78068e-05 0.0005 1.46608e-07 
35 1 0.0198377 0.0234159 0.0113987 0.00265062 -0.00142971 -0.00861979 -1.62225e-07 1.70435e-07 2.0433e-07 0.0005 1.46608e-07 
37 1 0.0300599 0.0176922 0.00739331 0.000329795 -0.0197021 0.00652972 2.97503e-08 5.47838e-08 -1.36104e-09 0.0005 1.46608e-07 
40 1 0.0191894 0.0223621 0.00884567 0.00258455 -0.013414 -0.0166785 5.62317e-05 -0.000338073 -0.000239909 0.0005 1.46608e-07 
41 1 0.0232445 0.0222309 0.0156641 -0.00167478 0.000744609 -0.000382592 -7.14427e-08 -9.65967e-07 3.57239e-08 0.0005 1.46608e-07 
43 1 0.0148987 0.0214299 0.0154454 0.0043898 0.00175394 -7.14522e-05 2.33838e-07 5.57895e-07 8.87465e-08 0.0005 1.46608e-07 
44 1 0.0243891 0.0193763 0.00718355 0.00232026 -0.00645619 -0.000159245 -1.45642e-07 -4.17866e-07 1.04422e-08 0.0005 1.46608e-07 
47 1 0.019455 0.0229508 0.0098148 -0.00104363 -0.0111348 -0.018136 -0.000177523 -0.00043551 -0.000686158 0.0005 1.46608e-07 
49 1 0.003617 0.0285782 0.0435188 -9.68849e-317 -9.75601e-317 2.88878e-12 0 0 0 0.0005 1.46608e-07 
52 1 0.032476 0.0233307 0.0107462 0.000334629 -0.000620402 -0.0130708 1.24037e-08 1.44225e-09 2.09676e-08 0.0005 1.46608e-07 
54 1 0.0206379 0.0140724 0.0131876 0.000329545 -1.03456e-05 0.000210369 5.76042e-08 -7.23297e-08 -4.06755e-08 0.0005 1.46608e-07 
57 1 0.0196051 0.0193773 0.00612808 -3.58963e-14 1.60992e-14 -3.28527e-13 6.88214e-22 -3.44107e-22 -2.11758e-22 0.0005 1.46608e-07 
59 1 0.0319964 0.0232997 0.0122822 0.000571867 0.00434612 -0.0176985 6.52989e-09 -2.43073e-08 3.91985e-08 0.0005 1.46608e-07 
62 1 0.0205892 0.0230058 0.0151818 -0.00303237 0.00145793 0.00376156 -1.45804e-06 1.43326e-06 -3.16079e-06 0.0005 1.46608e-07 
63 1 0.0170189 0.014122 0.0136144 -0.00585316 0.0028497 -0.00418488 1.00326e-07 2.44074e-08 1.10382e-07 0.0005 1.46608e-07 
65 1 0.0337991 0.0197341 0.0156968 0.00255418 0.00867716 -0.000428793 2.01449e-07 -1.8092e-07 1.77945e-07 0.0005 1.46608e-07 
67 1 0.031596 0.023199 0.0102093 0.000501363 -0.00647166 -0.019363 -5.6357e-09 -1.14108e-08 -1.40142e-08 0.0005 1.46608e-07 
68 1 0.032275 0.0229616 0.0133025 0.00025494 0.00990122 -0.0192834 4.49576e-10 -8.86682e-09 -6.79388e-09 0.0005 1.46608e-07 
71 1 0.0187573 0.0208157 0.00757195 -0.000683197 -0.0128602 -0.00723473 -4.86055e-05 -0.000239503 -8.5014e-05 0.0005 1.46608e-07 
73 1 0.0162019 0.0236712 0.0139549 0.00173882 0.0016097 0.000766236 -7.18386e-08 -1.61148e-07 4.32485e-08 0.0005 1.46608e-07 
74 1 0.023217 0.0153753 0.0139983 0.00509748 0.00384343 0.00704158 -1.15906e-07 -3.84658e-07 -1.80512e-06 0.0005 1.46608e-07 
76 1 0.0174644 0.0150578 0.0134498 0.00113414 0.0010337 0.00150743 7.37716e-08 -1.12879e-06 -1.16842e-06 0.0005 1.46608e-07 
79 1 0.0298227 0.0168503 0.00773621 0.00116756 -0.0111583 0.00432684 2.15309e-07 9.24775e-08 1.08293e-07 0.0005 1.46608e-07 
80 1 0.0208205 0.023493 0.0118242 0.000348 0.000432524 -1.55065e-05 -3.01123e-07 4.07231e-08 -1.42584e-07 0.0005 1.46608e-07 
84 1 0.0258306 0.0233829 0.0115036 0.000551268 0.000809377 -0.0210959 1.85354e-09 -9.45711e-09 -2.86118e-09 0.0005 1.46608e-07 
85 1 0.0225741 0.0228298 0.0152258 -0.00197389 -0.000881015 -0.00365782 1.38944e-07 -1.07687e-06 1.13352e-06 0.0005 1.46608e-07 
86 1 0.0226454 0.0218349 0.0149683 0.000820948 0.00412062 -0.00439657 -5.12107e-07 2.22925e-08 2.61325e-08 0.0005 1.46608e-07 
87 1 0.0302745 0.0188291 0.0071818 0.000520031 -0.0187264 0.000425018 1.42202e-09 2.29697e-09 1.21115e-08 0.0005 1.46608e-07 
88 1 0.0325016 0.0223816 0.0142577 0.000949296 0.0116622 -0.0151255 -1.37282e-08 9.32613e-09 -3.21154e-08 0.0005 1.46608e-07 
89 1 0.0329824 0.0205134 0.0154708 0.000349769 0.0193592 -0.00758413 -1.84122e-09 1.67383e-09 -1.21485e-08 0.0005 1.46608e-07 
90 1 0.0218157 0.0209899 0.0154981 0.00683202 0.0163782 -0.00808415 -2.64571e-07 4.21962e-07 -8.67527e-07 0.0005 1.46608e-07 
92 1 0.0296298 0.0161786 0.00829792 0.000341345 -0.01283 0.010106 2.20478e-06 3.74165e-06 1.65373e-07 0.0005 1.46608e-07 
97 1 0.018924 0.0216442 0.00807178 -0.00590483 -0.0411601 -0.0234745 -1.90171e-05 -0.000529862 -0.000260291 0.0005 1.46608e-07 
103 1 0.0282001 0.0156855 0.0141603 0.000961949 0.00816557 0.0119112 -2.1352e-08 -2.28037e-08 -3.21683e-08 0.0005 1.46608e-07 
105 1 0.0254245 0.0210295 0.0163967 -0.00207701 0.00286025 -0.000523107 5.6909e-08 -2.18363e-06 1.2716e-06 0.0005 1.46608e-07 
106 1 0.0211831 0.023141 0.0136768 0.00304948 0.00125659 -0.00147054 -1.81445e-07 -7.59115e-07 1.34208e-07 0.0005 1.46608e-07 
108 1 0.0214483 0.0168437 0.00645098 -2.38466e-14 5.08573e-14 1.84346e-13 -3.76136e-20 -6.34745e-20 1.2282e-20 0.0005 1.46608e-07 
109 1 0.0233687 0.0152827 0.00935231 0.000232749 -0.0104258 0.0177393 4.89458e-09 -5.93223e-10 1.44073e-08 0.0005 1.46608e-07 
110 1 0.0191648 0.0143104 0.0137501 0.00079287 0.000692218 0.000225351 -9.44417e-08 -3.33352e-07 -7.1253e-08 0.0005 1.46608e-07 
112 1 0.026973 0.0207662 0.0154691 0.00343589 0.00863852 -0.00435816 -7.8328e-07 1.65388e-06 -8.14316e-07 0.0005 1.46608e-07 
116 1 0.0170223 0.0242347 0.0138599 0.00170571 0.00153351 0.000507999 -8.40391e-08 -8.61994e-08 -1.2311e-08 0.0005 1.46608e-07 
121 1 0.0551527 0.0181697 0.00595147 -1.30351e-14 -1.76498e-14 -2.51654e-13 5.34954e-20 -2.04744e-20 -1.05879e-21 0.0005 1.46608e-07 
122 1 0.0345006 0.015085 0.0130281 0.000267058 0.00781118 0.019107 -2.09325e-09 1.18656e-08 2.96725e-09 0.0005 1.46608e-07 
124 1 0.0209012 0.0213523 0.0153184 0.00308447 0.00474941 -0.00213107 3.93659e-07 -4.01882e-06 5.17257e-06 0.0005 1.46608e-07 
125 1 0.0341455 0.0157467 0.0143046 -3.59918e-06 0.013222 0.0187468 9.78157e-10 1.084e-08 -4.14184e-09 0.0005 1.46608e-07 
126 1 0.0189773 0.0241148 0.0127938 0.00166034 -0.00213422 0.00117369 1.26931e-05 -5.06979e-09 5.02203e-06 0.0005 1.46608e-07 
128 1 0.0303903 0.00406748 0.0435188 -9.67556e-317 -9.75879e-317 -3.22607e-12 0 0 0 0.0005 1.46608e-07 
130 1 0.0213193 0.01971 0.0159089 0.00598427 0.00625483 0.000373707 -1.77373e-07 5.80988e-07 -2.83513e-07 0.0005 1.46608e-07 
131 1 0.028673 0.0166044 0.0149896 0.000245431 0.0172311 0.011763 -3.9777e-09 1.64252e-08 2.83801e-10 0.0005 1.46608e-07 
133 1 0.0222674 0.0230627 0.0134514 0.00376435 0.0026615 -0.00522245 2.99679e-07 -2.2917e-07 1.31738e-07 0.0005 1.46608e-07 
135 1 0.033221 0.0193003 0.0158027 0.00162886 0.0085125 -2.63127e-06 3.26681e-08 -4.63246e-07 1.15002e-07 0.0005 1.46608e-07 
137 1 0.0186157 0.01412 0.0145638 0.00112008 0.000397569 7.8251e-05 -2.03964e-08 -5.03055e-08 -3.56329e-07 0.0005 1.46608e-07 
138 1 0.0151561 0.0202345 0.0157834 0.000378482 0.0204862 -0.00569873 -4.1391e-10 -2.03426e-09 -1.47413e-08 0.0005 1.46608e-07 
139 1 0.0248639 0.0209794 0.00787728 0.00151166 -0.0177722 -0.0149364 -4.81533e-08 6.3913e-08 4.43976e-08 0.0005 1.46608e-07 
141 1 0.0187838 0.0232916 0.0146216 -0.0609658 -0.0630758 0.0635794 0 0 -1.43822e-06 0.0005 1.46608e-07 
142 1 0.0350534 0.0149032 0.0104896 0.000403246 -0.00431966 0.0198761 -1.78596e-09 8.04988e-09 9.35068e-09 0.0005 1.46608e-07 
143 1 0.0284164 0.0152352 0.0131835 0.000865189 0.0105478 0.0197714 1.6807e-08 3.03098e-08 3.3777e-08 0.0005 1.46608e-07 
145 1 0.0216443 0.0179538 0.015987 -1.72798e-05 0.0232907 0.00592 -8.74645e-08 -2.54065e-07 6.45498e-07 0.0005 1.46608e-07 
147 1 0.0261347 0.0232007 0.0128014 0.00149102 0.00695204 -0.0157166 1.02166e-08 -3.202e-08 2.06219e-08 0.0005 1.46608e-07 
149 1 0.0570019 0.0175547 0.00590579 4.34374e-15 1.18937e-14 2.80768e-13 -8.5365e-21 3.42784e-21 0 0.0005 1.46608e-07 
150 1 0.0196659 0.0140227 0.0129327 2.9478e-05 0.000600729 -0.000997087 8.17987e-09 -1.57214e-08 2.61227e-08 0.0005 1.46608e-07 
151 1 0.0194312 0.0148096 0.0145747 -8.04032e-06 -0.00156937 0.000694018 -1.68155e-07 -5.26794e-09 9.6877e-08 0.0005 1.46608e-07 
157 1 0.0200741 0.024119 0.0127956 0.000258651 0.00076045 -0.00069059 -9.25831e-07 4.2458e-08 8.31266e-07 0.0005 1.46608e-07 
158 1 0.02357 0.0229344 0.0150326 -0.00141858 0.000440975 -0.00181826 -3.90904e-07 1.33398e-06 -1.8652e-08 0.0005 1.46608e-07 
160 1 0.0317528 0.0233694 0.0111962 0.000273373 -0.000761484 -0.0201922 5.20058e-11 -1.1328e-08 5.37327e-10 0.0005 1.46608e-07 
161 1 0.0221348 0.00230077 0.0435188 9.74157e-317 -9.69799e-317 9.23294e-13 0 0 0 0.0005 1.46608e-07 
165 1 0.0154392 0.0234094 0.0145464 0.00114236 0.000785907 -0.000290994 2.65485e-07 -1.69282e-07 -4.8633e-07 0.0005 1.46608e-07 
166 1 0.0273655 0.0187861 0.0158499 0.000769903 0.0181647 0.000643097 -4.88281e-09 1.56665e-08 -1.12853e-08 0.0005 1.46608e-07 
167 1 0.0223348 0.020073 0.0158225 7.40501e-07 0.0199498 -0.00471582 3.05749e-09 -3.68289e-09 -1.31471e-08 0.0005 1.46608e-07 
170 1 0.0162655 0.0156319 0.0143461 0.00310041 0.00952613 0.0105773 -1.81431e-07 -3.13058e-07 -7.48418e-07 0.0005 1.46608e-07 
171 1 0.0150271 0.0221652 0.0147802 0.00260031 0.00179012 -0.000163734 7.24905e-07 5.24986e-07 -4.50901e-08 0.0005 1.46608e-07 
173 1 0.0149527 0.0227503 0.013973 0.00104961 0.00117164 -6.1271e-05 5.44228e-07 1.76831e-07 -2.89305e-09 0.0005 1.46608e-07 
174 1 0.0164198 0.016343 0.0150374 8.82525e-05 0.00945444 0.00621327 -5.2301e-09 -2.26307e-07 -1.98147e-07 0.0005 1.46608e-07 
179 1 0.0181696 0.0143999 0.0137138 0.000733609 0.000239764 0.000271031 2.18056e-07 -7.62122e-08 -1.1981e-08 0.0005 1.46608e-07 
185 1 0.0295067 0.0156932 0.00879427 0.00135971 -0.0100575 0.0123419 2.53674e-06 4.24624e-06 -7.57695e-06 0.0005 1.46608e-07 
186 1 0.0279257 0.0161679 0.0147041 0.00177035 0.0145569 0.0114846 -2.14039e-09 2.92889e-08 7.64653e-09 0.0005 1.46608e-07 
187 1 0.0271468 0.0200221 0.0156644 0.00204323 0.00501165 -0.00222866 -1.98711e-07 -1.18097e-06 -3.10365e-07 0.0005 1.46608e-07 
191 1 0.0235147 0.0158373 0.00861107 0.000511417 -0.0108793 0.0116144 -2.81063e-08 9.29471e-09 4.43712e-08 0.0005 1.46608e-07 
193 1 0.0214801 0.0142367 0.013701 0.000388673 0.000321172 -0.000282077 1.99363e-07 -1.08322e-07 -9.42903e-08 0.0005 1.46608e-07 
194 1 0.0267663 0.0214015 0.0150421 0.00183271 0.0122019 -0.00995985 -2.96467e-07 5.63035e-07 -9.77763e-08 0.0005 1.46608e-07 
197 1 0.0286868 0.0148611 0.012177 0.00035668 0.00280264 0.0157613 -2.08003e-09 1.53774e-09 -1.81921e-08 0.0005 1.46608e-07 
199 1 0.021671 0.0238648 0.0134749 0.000870879 0.000585152 -0.000320467 3.83236e-08 -9.39793e-08 7.07671e-07 0.0005 1.46608e-07 
200 1 0.0176074 0.0240495 0.0130705 3.51273e-05 0.000410449 -0.00032554 4.24995e-09 1.1252e-08 -2.03024e-08 0.0005 1.46608e-07 
205 1 0.0288926 0.0147656 0.0111647 0.00107697 -0.000767439 0.008317 6.30633e-08 6.24218e-08 2.64441e-07 0.0005 1.46608e-07 
206 1 0.0164681 0.015094 0.0135272 0.00220072 0.00568282 0.0107134 1.51114e-07 -1.08105e-07 -5.12813e-07 0.0005 1.46608e-07 
211 1 0.0186283 0.0143395 0.0124067 -0.00298014 0.0349491 -0.0580269 1.86592e-08 4.06141e-07 -6.74325e-07 0.0005 1.46608e-07 
215 1 0.0268146 0.0190088 0.00598366 -1.911e-14 -3.08041e-15 3.11554e-13 0 0 0 0.0005 1.46608e-07 
220 1 0.0187571 0.0227545 0.0237138 -0.0820932 0.182627 0.0324424 0 0 -1.43822e-06 0.0005 1.46608e-07 
221 1 0.0202693 0.023468 0.0134231 0.00334493 0.00176907 -0.00420445 9.08262e-07 -1.47699e-06 2.07137e-06 0.0005 1.46608e-07 
224 1 0.0228325 0.0210031 0.015491 -0.00046506 0.00463453 -0.00277026 3.68907e-08 1.4174e-06 -4.62832e-07 0.0005 1.46608e-07 
225 1 0.0159603 0.0227056 0.0140465 0.00159067 0.00153166 0.000847671 -1.36972e-07 -2.67812e-07 4.75933e-07 0.0005 1.46608e-07 
226 1 0.0326551 0.0217204 0.0148354 0.000208092 0.0180962 -0.0124908 -1.35171e-10 -2.61422e-09 -1.14216e-08 0.0005 1.46608e-07 
227 1 0.0248426 0.021743 0.0160067 -0.000271593 -0.000150999 -0.00116202 1.23558e-06 1.40551e-06 -1.0314e-06 0.0005 1.46608e-07 
228 1 0.0249813 0.020168 0.0166444 -0.00701707 0.00592718 1.76771e-05 1.61295e-09 -3.37798e-07 3.56918e-07 0.0005 1.46608e-07 
229 1 0.0307953 0.0209156 0.00761497 0.000464032 -0.0180012 -0.00712628 -2.8311e-09 -9.81653e-09 6.10663e-09 0.0005 1.46608e-07 
232 1 0.0221996 0.00109062 0.0435188 9.58743e-317 9.68145e-317 4.97437e-14 0 0 0 0.0005 1.46608e-07 
235 1 0.0159643 0.0218927 0.0149968 0.0033381 0.00454336 -0.000420458 4.11652e-07 -1.75953e-07 -3.36276e-07 0.0005 1.46608e-07 
237 1 0.0305347 0.0199781 0.00732291 0.000167117 -0.0205075 -0.00460792 -1.2643e-09 -8.07796e-09 9.04914e-09 0.0005 1.46608e-07 
240 1 0.0209778 0.0146715 0.0144484 0.000452237 0.000299478 -3.73372e-05 -8.25957e-09 -1.82392e-07 -9.92785e-08 0.0005 1.46608e-07 
241 1 0.0215609 0.0233718 0.0125767 0.0259541 -0.00324087 0.0154518 5.96224e-07 6.04948e-06 -1.95807e-05 0.0005 1.46608e-07 
242 1 0.0177888 0.0146222 0.0119374 -9.34922e-06 0.000769813 -0.00127804 -5.59524e-09 -1.77049e-08 2.93903e-08 0.0005 1.46608e-07 
247 1 0.0335602 0.0179191 0.0156237 -3.74091e-05 0.0179573 0.00536335 -5.75467e-09 -1.51999e-08 -1.76365e-08 0.0005 1.46608e-07 
248 1 0.0200293 0.0226445 0.00917773 0.0270761 -0.00435788 -0.00952941 0.000282267 0.00102114 0.0012065 0.0005 1.46608e-07 
250 1 0.0202234 0.0233337 0.012437 -0.00270096 0.003445 -0.00533942 -3.49163e-07 -9.46807e-08 2.94936e-07 0.0005 1.46608e-07 
252 1 0.0242641 0.0156434 0.0154844 0.00120383 -0.00669798 0.00934139 -8.15988e-07 6.64697e-07 -1.51353e-06 0.0005 1.46608e-07 
253 1 0.0186397 0.0199756 0.00728726 0.00146986 -0.0149624 -0.00330706 -3.47506e-05 7.39191e-05 1.26634e-05 0.0005 1.46608e-07 
256 1 0.0216474 0.0218922 0.0149264 -0.000804202 0.00548076 -0.00562727 -9.99072e-07 -1.39895e-06 1.27897e-06 0.0005 1.46608e-07 
257 1 0.0172879 0.0155828 0.0142823 0.00467682 0.0021173 0.00181775 -5.76664e-07 6.86955e-07 8.6949e-07 0.0005 1.46608e-07 
258 1 0.0293605 0.0152896 0.00942352 0.000576015 -0.00827048 0.0176661 -9.03421e-08 1.37245e-06 6.19728e-07 0.0005 1.46608e-07 
260 1 0.108836 0.0200055 0.00584234 7.6706e-16 -1.27673e-15 -6.97333e-15 0 0 0 0.0005 1.46608e-07 
262 1 0.0237286 0.0165625 0.00798917 0.000417444 -0.0166756 0.0120654 1.8454e-07 4.76962e-07 -3.04369e-07 0.0005 1.46608e-07 
263 1 0.0233645 0.0188657 0.0161523 -2.08233e-05 0.024292 0.000975431 6.59674e-08 -5.48704e-07 -1.4355e-07 0.0005 1.46608e-07 
268 1 0.0176675 0.0142444 0.0128633 -0.000163506 1.05788e-05 0.000572617 2.06802e-07 3.47911e-08 -1.38979e-07 0.0005 1.46608e-07 
269 1 0.022465 0.0225343 0.0142768 0.00324125 0.0031094 -0.00545677 3.29026e-07 -3.35261e-07 1.69682e-06 0.0005 1.46608e-07 
270 1 0.0206843 0.0221238 0.0147208 -0.00110999 0.00372382 -0.00088843 -2.69299e-06 -2.29043e-06 2.2224e-06 0.0005 1.46608e-07 
271 1 0.0256949 0.0232901 0.0106102 0.000324281 -0.00487928 -0.0199953 -1.85715e-09 -8.83184e-09 -6.27988e-09 0.0005 1.46608e-07 
272 1 0.0238443 0.0215701 0.0161156 0.0012255 0.00684435 0.00281373 0 0 -1.43822e-06 0.0005 1.46608e-07 
273 1 0.0214065 0.0228027 0.0145906 -0.00277933 0.00705968 0.00176488 -6.42282e-07 -1.40968e-06 8.88475e-07 0.0005 1.46608e-07 
274 1 0.0158143 0.0210291 0.0154782 0.00504176 0.00332524 -0.00194495 3.50708e-07 4.21536e-07 -2.55563e-07 0.0005 1.46608e-07 
275 1 0.0203198 0.0220699 0.00845016 -0.0514024 0.00934969 -0.00548739 -0.00108992 0.000594677 8.59281e-05 0.0005 1.46608e-07 
277 1 0.021937 0.0236307 0.0144099 -0.00139167 0.00570726 0.00186937 3.95391e-07 -9.02978e-08 -1.01378e-06 0.0005 1.46608e-07 
282 1 0.0143905 0.0229088 0.0149846 0.00249074 0.00168731 -9.63134e-06 2.58093e-07 -1.07895e-08 -7.82626e-07 0.0005 1.46608e-07 
283 1 -0.0108336 0.0355819 -0.00137689 -0.166193 0.0462562 -0.959172 0 0 -1.43822e-06 0.0005 1.46608e-07 
284 1 0.00937694 0.00505359 0.0435188 -9.68799e-317 -9.69932e-317 9.23294e-13 0 0 0 0.0005 1.46608e-07 
286 1 0.0221297 0.0198462 0.0186195 0.094048 -0.0656352 -0.187055 0 0 -1.43822e-06 0.0005 1.46608e-07 
288 1 0.0182087 0.0239256 0.0138598 0.00689364 -0.00360654 -0.00611203 2.13562e-07 3.30237e-08 -4.62717e-07 0.0005 1.46608e-07 
289 1 0.0204423 0.0227158 0.0139502 0.00244572 0.00332315 -0.00645806 7.65797e-07 -1.48382e-06 2.00921e-06 0.0005 1.46608e-07 
291 1 0.0182586 0.01536 0.0139795 0.0042851 -2.28088e-05 0.00171473 -1.68186e-07 -5.89984e-07 -5.8177e-08 0.0005 1.46608e-07 
294 1 0.0201323 0.0144228 0.0139758 0.000702537 -0.000151685 0.000496399 1.84373e-07 2.84469e-07 2.33173e-07 0.0005 1.46608e-07 
299 1 0.024947 0.0190645 0.00586966 2.59305e-15 3.94918e-16 -4.25303e-14 1.85686e-20 1.86774e-19 3.17637e-21 0.0005 1.46608e-07 
300 1 0.0276372 0.0177256 0.015589 0.000248689 0.0207106 0.00853578 2.75182e-08 -5.61641e-08 -2.35112e-08 0.0005 1.46608e-07 
