ITEM: TIMESTEP
9200000
ITEM: NUMBER OF ATOMS
161
ITEM: BOX BOUNDS ff ff ff
-0.02 0.43
-0.02 0.06
-0.02 0.07
ITEM: ATOMS id type x y z vx vy vz fx fy fz radius mass 
1 1 0.0168184 0.0141146 0.0144963 -0.00518941 -0.0127479 -0.035052 5.71115e-06 -4.09723e-06 1.4888e-05 0.0005 1.46608e-07 
2 1 0.0222721 0.0140942 0.0147792 0.00496801 -0.00394147 0.0116104 4.0669e-08 -6.57402e-08 5.9106e-07 0.0005 1.46608e-07 
4 1 0.0214442 0.0234909 0.0146196 -0.000773511 -6.07558e-05 1.57092e-05 -2.48195e-07 -3.84521e-07 -8.3617e-07 0.0005 1.46608e-07 
5 1 0.0298079 0.020862 0.00758642 0.000384985 -0.0183119 -0.00795002 -3.1767e-09 -2.28375e-08 -5.69125e-10 0.0005 1.46608e-07 
7 1 0.0234616 0.0194456 0.00721711 0.00152436 -0.00927215 -0.00046266 -2.67127e-09 -4.67484e-08 -5.01547e-09 0.0005 1.46608e-07 
11 1 0.0228229 0.0234884 0.014321 -0.000216458 0.000187361 -0.000189694 -1.75611e-07 3.32066e-07 -4.0959e-07 0.0005 1.46608e-07 
13 1 0.0202715 0.0242679 0.0133681 0.00411982 -0.00903884 -0.0218907 0 0 -1.43822e-06 0.0005 1.46608e-07 
15 1 0.00938048 0.0183393 0.00587271 3.64639e-15 5.38915e-16 -3.69009e-14 -1.50878e-21 1.09717e-20 0 0.0005 1.46608e-07 
16 1 0.0214314 0.0227796 0.013916 0.00480372 0.00329401 -0.00762626 0 0 -1.43822e-06 0.0005 1.46608e-07 
17 1 0.0277073 0.0148985 0.0123183 0.000431503 0.00461067 0.0197513 1.90637e-09 5.49733e-09 -1.07104e-08 0.0005 1.46608e-07 
18 1 0.0366849 0.0218066 0.0435188 -9.6879e-317 9.73506e-317 2.68131e-13 0 0 0 0.0005 1.46608e-07 
19 1 0.0171574 0.0235722 0.015585 0.00751123 -0.00185874 0.011388 0 0 -1.43822e-06 0.0005 1.46608e-07 
20 1 0.0324594 0.018913 0.0157985 0.00207997 0.0109699 0.00289458 -8.54553e-07 1.62107e-06 -6.84213e-07 0.0005 1.46608e-07 
23 1 0.0188698 0.0244045 0.0137789 -0.000121867 0.000251348 -0.000215342 -1.34138e-07 -1.17031e-07 1.72559e-07 0.0005 1.46608e-07 
24 1 0.0263079 0.019625 0.0157511 0.00522393 0.000875428 0.00337999 2.46409e-07 3.56326e-07 -3.67534e-07 0.0005 1.46608e-07 
25 1 0.0207705 0.0146674 0.0144511 -0.000164871 0.000253321 -0.000926435 -1.09952e-07 3.58186e-08 1.86297e-09 0.0005 1.46608e-07 
27 1 0.0173543 0.0146254 0.0120343 0.0026917 0.00120668 -0.00457686 1.43715e-08 -2.23961e-07 2.05428e-06 0.0005 1.46608e-07 
28 1 0.0300322 0.0216609 0.00802147 0.000610082 -0.01481 -0.0112643 -9.24441e-10 -6.53585e-08 -1.45645e-08 0.0005 1.46608e-07 
29 1 0.0176948 0.0142267 0.0128937 0.00388393 0.00306736 -0.011094 2.47394e-08 7.21828e-07 -5.97591e-07 0.0005 1.46608e-07 
31 1 0.0209742 0.0242014 0.0140955 0.000201941 7.35428e-05 9.21084e-05 -1.05075e-06 9.28739e-07 -8.63878e-07 0.0005 1.46608e-07 
32 1 0.0130625 0.0172679 0.0214684 -0.00319118 -0.0746281 -0.085428 0 0 -1.43822e-06 0.0005 1.46608e-07 
33 1 0.0153395 0.0222677 0.0146419 0.00400511 0.00150282 -0.000903087 1.19824e-05 2.9976e-06 -8.50054e-06 0.0005 1.46608e-07 
35 1 0.0185317 0.0229309 0.00990763 0.00242265 -0.00633723 -0.0137163 3.87309e-08 2.20097e-09 -1.2521e-07 0.0005 1.46608e-07 
37 1 0.0287779 0.0164562 0.00803785 0.000233129 -0.0164256 0.0125991 -1.03633e-09 -2.64507e-10 1.27759e-08 0.0005 1.46608e-07 
40 1 0.0139985 0.0212056 0.015725 0.00576944 0.0018773 0.00919519 -2.27376e-06 5.15729e-06 -7.50087e-06 0.0005 1.46608e-07 
41 1 0.0159444 0.0157927 0.0145386 0.0101 0.00143097 0.00365089 -2.40093e-07 -2.79717e-07 -2.9883e-07 0.0005 1.46608e-07 
43 1 0.0194713 0.0143539 0.0138641 -0.000936813 -0.000211135 0.000531476 2.48171e-08 8.98991e-08 -1.10125e-07 0.0005 1.46608e-07 
44 1 0.02167 0.0206777 0.0156376 5.83148e-11 0.0191464 -0.00739556 -1.23399e-16 -4.82825e-09 -1.27802e-08 0.0005 1.46608e-07 
47 1 0.017821 0.0231025 0.0148534 -0.00301122 0.00288279 -0.00151299 -2.87668e-06 -2.01205e-06 2.84102e-06 0.0005 1.46608e-07 
49 1 0.003617 0.0285782 0.0435188 -9.68849e-317 -9.75601e-317 2.88878e-12 0 0 0 0.0005 1.46608e-07 
50 1 0.00307347 0.0553359 0.0492862 -0.124816 0.250453 -0.358203 0 0 -1.43822e-06 0.0005 1.46608e-07 
52 1 0.0302012 0.0191925 0.00719054 0.000960425 -0.0209457 -0.00231949 1.67685e-07 -5.45594e-07 1.57999e-08 0.0005 1.46608e-07 
54 1 0.0193848 0.0232387 0.010472 0.00621226 -0.00322909 -0.00708348 3.50511e-06 -1.96809e-07 -4.1361e-07 0.0005 1.46608e-07 
57 1 0.0196051 0.0193773 0.00612808 -3.58964e-14 1.60991e-14 -3.28527e-13 1.56172e-21 -1.46907e-21 0 0.0005 1.46608e-07 
59 1 0.0308423 0.0233525 0.0110975 7.80823e-05 -0.00110346 -0.0226305 3.33257e-10 -1.24155e-08 -2.17266e-09 0.0005 1.46608e-07 
62 1 0.0187201 0.0140053 0.0129616 -0.000206027 -0.000280695 0.000430283 3.44942e-08 -5.62225e-08 2.20102e-08 0.0005 1.46608e-07 
63 1 0.0197969 0.0219025 0.0149311 0.0056309 -0.00165724 0.00124978 -9.36435e-07 -9.73821e-07 -6.95682e-07 0.0005 1.46608e-07 
65 1 0.0315735 0.0233573 0.0120163 0.000658983 0.00407833 -0.0180612 -1.77345e-08 -9.49083e-09 4.48404e-08 0.0005 1.46608e-07 
67 1 0.0303441 0.0227085 0.0091677 0.00198409 -0.00941713 -0.011299 3.39623e-09 -1.13372e-07 -1.28512e-07 0.0005 1.46608e-07 
68 1 0.0310979 0.0232368 0.0126292 0.00040696 0.00624196 -0.0181679 -2.53418e-09 -1.74409e-08 3.34813e-09 0.0005 1.46608e-07 
71 1 0.0143228 0.0224821 0.0143194 0.000808412 -3.96272e-05 -0.000243123 7.12373e-07 1.48592e-06 -3.13807e-06 0.0005 1.46608e-07 
73 1 0.0157692 0.0235883 0.0144313 -3.40853e-05 0.000343089 0.000577014 1.84937e-06 1.55993e-06 2.19312e-07 0.0005 1.46608e-07 
74 1 0.0219833 0.0147847 0.0111333 0.00050489 -0.00461306 0.024406 -8.9486e-09 -3.5377e-08 -8.57224e-08 0.0005 1.46608e-07 
76 1 0.0237193 0.0151944 0.0150582 -0.00295438 -0.00372899 -0.000880768 -3.26628e-08 -4.4772e-08 -5.80353e-09 0.0005 1.46608e-07 
79 1 0.028593 0.0157264 0.00878497 0.000505768 -0.00771541 0.008712 6.31143e-07 1.49019e-06 -8.92853e-07 0.0005 1.46608e-07 
80 1 0.0154405 0.0207615 0.0156031 0.00821721 0.00427228 -0.0008955 -4.44445e-07 1.40018e-06 -3.74189e-07 0.0005 1.46608e-07 
83 1 0.0207233 0.0231128 0.0132929 -0.00171979 0.00164493 -0.00151882 -7.3315e-07 -7.29965e-07 5.79436e-07 0.0005 1.46608e-07 
84 1 0.0242736 0.022607 0.00913285 0.00224183 -0.00815818 -0.0105014 -1.70465e-08 -2.14289e-08 -2.74041e-08 0.0005 1.46608e-07 
85 1 0.0195731 0.023792 0.0141395 -0.00127569 -0.00164404 -0.000821848 -1.01848e-07 2.08152e-07 1.64704e-07 0.0005 1.46608e-07 
86 1 0.019871 0.0216056 0.0161296 0.0111795 0.0325068 -0.0167944 0 0 -1.43822e-06 0.0005 1.46608e-07 
87 1 0.0289695 0.0172865 0.0075424 8.51053e-05 -0.0208634 0.00781817 -1.15086e-09 5.34459e-10 1.11627e-08 0.0005 1.46608e-07 
88 1 0.031322 0.0228287 0.0134588 -0.00107947 0.0120778 -0.0198199 6.74118e-09 9.72238e-10 8.36521e-09 0.0005 1.46608e-07 
89 1 0.0317675 0.0216164 0.0149417 0.000128268 0.0185736 -0.0119464 5.09338e-10 -3.57819e-09 -1.07105e-08 0.0005 1.46608e-07 
90 1 0.0227304 0.0156984 0.0144406 0.00214196 0.00199851 0.00391469 -7.21796e-08 -2.70804e-07 -4.06246e-07 0.0005 1.46608e-07 
92 1 0.0283113 0.0152056 0.00956617 0.000434824 -0.00870082 0.0178379 3.06976e-06 8.68477e-06 -2.46149e-05 0.0005 1.46608e-07 
97 1 0.0139816 0.0218449 0.0149809 0.00507414 -0.00614274 -0.000874483 -1.38779e-07 3.28624e-06 -6.12385e-06 0.0005 1.46608e-07 
102 1 0.0151259 0.0162186 0.0149295 0.00541829 -0.00201841 -0.00301637 3.92496e-08 -1.60084e-07 -1.12186e-07 0.0005 1.46608e-07 
103 1 0.0267375 0.0173198 0.0153396 0.000973903 0.021248 0.00753354 3.06305e-08 5.89027e-08 1.30218e-12 0.0005 1.46608e-07 
105 1 0.0199286 0.0149999 0.0148762 -0.000964133 -0.00137623 -0.00115571 7.3273e-08 5.74339e-08 2.73555e-07 0.0005 1.46608e-07 
106 1 0.0212726 0.015699 0.0144423 0.00669653 -0.00609789 -0.00539321 1.93991e-07 7.31684e-07 7.66669e-07 0.0005 1.46608e-07 
108 1 0.0214483 0.0168437 0.00645098 -2.38239e-14 5.09039e-14 1.84336e-13 -1.74436e-20 6.4798e-20 -1.94818e-20 0.0005 1.46608e-07 
109 1 0.020519 0.0223815 0.014441 0.0042563 -0.000709554 -0.000301289 -3.1505e-08 -1.06076e-06 1.83654e-06 0.0005 1.46608e-07 
110 1 0.0232446 0.0183424 0.00727122 0.00025507 -0.021053 0.00332808 -2.07295e-09 -5.44795e-09 1.15227e-08 0.0005 1.46608e-07 
112 1 0.0254596 0.022491 0.0139829 0.000264239 0.0138614 -0.0177034 -1.12483e-09 -7.06607e-09 -1.11337e-08 0.0005 1.46608e-07 
116 1 0.0168845 0.0233251 0.0145828 -0.00498822 -0.0149046 -0.00931071 -1.32868e-06 7.56359e-07 -1.30744e-06 0.0005 1.46608e-07 
121 1 0.0551527 0.0181697 0.00595147 -1.30042e-14 -1.76627e-14 -2.51655e-13 9.56883e-21 1.68083e-21 -6.35275e-22 0.0005 1.46608e-07 
122 1 0.0329007 0.0168219 0.0151941 0.00147445 0.0121586 0.00816841 -8.73747e-09 3.12551e-08 -8.59834e-09 0.0005 1.46608e-07 
124 1 0.0191847 0.023296 0.0126918 0.00126469 0.00292513 -0.0141423 -3.73977e-07 5.29132e-07 3.69505e-08 0.0005 1.46608e-07 
125 1 0.0326108 0.0179187 0.0156444 0.000291746 0.0195888 0.00578124 2.10574e-08 -2.0223e-07 -8.54585e-08 0.0005 1.46608e-07 
126 1 0.0183492 0.0241043 0.0129936 7.10073e-05 0.00107345 -0.000745422 -1.34417e-07 6.88938e-09 -7.6531e-08 0.0005 1.46608e-07 
128 1 0.0303903 0.00406748 0.0435188 -9.67556e-317 -9.75879e-317 -3.22607e-12 0 0 0 0.0005 1.46608e-07 
130 1 0.019854 0.0234576 0.0116116 0.000239899 0.00166653 -0.0034059 -1.47818e-07 -4.94721e-07 -1.08218e-06 0.0005 1.46608e-07 
131 1 0.026473 0.0213599 0.0150134 0.00123951 0.0125441 -0.00960672 -4.48297e-06 -4.12604e-06 -1.07059e-06 0.0005 1.46608e-07 
133 1 0.01972 0.0140062 0.0129602 -0.000151833 -0.00062282 0.000948027 -9.80168e-09 -1.81476e-08 6.10819e-08 0.0005 1.46608e-07 
135 1 0.0320232 0.0205521 0.0154763 0.000213495 0.0192992 -0.00747911 -1.95974e-09 2.02637e-09 -1.24747e-08 0.0005 1.46608e-07 
137 1 0.0222969 0.0151406 0.00964077 0.000492478 -0.00977686 0.0201187 -6.64856e-09 -9.48015e-09 -5.93413e-08 0.0005 1.46608e-07 
138 1 0.0142324 0.0221203 0.0160543 0.0028513 0.00300361 0.00517391 -7.50609e-07 -7.60441e-07 3.93483e-07 0.0005 1.46608e-07 
139 1 0.0256326 0.020591 0.0165737 -2.28995e-09 0.0239586 -0.00707163 -3.99624e-15 -4.67807e-09 -1.64068e-08 0.0005 1.46608e-07 
141 1 0.0184283 0.0236818 0.0143101 -0.000989592 0.00161544 -0.00024511 -4.85454e-07 -2.57901e-06 1.54715e-06 0.0005 1.46608e-07 
142 1 0.0332773 0.0155367 0.0140035 5.95659e-05 0.0120227 0.0190816 5.57179e-10 1.22617e-08 -2.61995e-09 0.0005 1.46608e-07 
143 1 0.0270733 0.0163408 0.0147732 -0.198733 0.0353456 -0.151171 -0.0161813 0.315949 -0.716551 0.0005 1.46608e-07 
145 1 0.0201497 0.0234028 0.0125481 0.00276048 0.00302807 -0.00421897 -2.26634e-06 -4.74057e-06 3.74499e-07 0.0005 1.46608e-07 
147 1 0.0218561 0.0169901 0.0154501 -9.30044e-05 0.00898405 0.00364266 1.79947e-08 -8.42516e-08 -4.79309e-08 0.0005 1.46608e-07 
149 1 0.0570019 0.0175547 0.00590579 4.33015e-15 1.18851e-14 2.80768e-13 -1.65535e-20 -4.10282e-21 4.23516e-22 0.0005 1.46608e-07 
150 1 0.0168519 0.0151005 0.0147856 -0.0108193 -0.00834698 -0.00736581 2.99506e-07 -1.61284e-06 1.28392e-06 0.0005 1.46608e-07 
151 1 0.0184604 0.0143798 0.0138516 -0.00305525 0.00042391 -0.000776307 -2.69755e-08 -3.49216e-08 1.31099e-08 0.0005 1.46608e-07 
157 1 0.0193371 0.0241485 0.0129006 0.000104387 -0.000783196 -0.00292657 -4.4377e-07 4.72817e-07 6.13221e-07 0.0005 1.46608e-07 
158 1 0.0234589 0.0230228 0.0149363 -0.000110698 0.000279039 -6.57299e-05 -4.23096e-07 3.30774e-07 1.44636e-07 0.0005 1.46608e-07 
160 1 0.0305779 0.0231694 0.010079 0.000529962 -0.00646537 -0.0194699 1.13132e-09 -1.06296e-08 -7.4781e-10 0.0005 1.46608e-07 
161 1 0.0221348 0.00230077 0.0435188 9.74157e-317 -9.69799e-317 9.23294e-13 0 0 0 0.0005 1.46608e-07 
165 1 0.0149234 0.023153 0.0147263 0.000321179 0.000122082 0.000142326 1.47717e-06 -7.59999e-07 -1.8059e-06 0.0005 1.46608e-07 
166 1 0.0260911 0.0207177 0.0154922 0.00383353 0.00878621 -0.0028339 -2.66717e-06 -1.58507e-06 6.74695e-07 0.0005 1.46608e-07 
167 1 0.020348 0.0196207 0.0159228 0.000423738 0.0209158 -0.00273779 -1.98228e-11 -1.7454e-09 -1.56567e-08 0.0005 1.46608e-07 
170 1 0.0165662 0.0152599 0.0138407 -0.00489887 -0.00764703 -0.00856004 -6.60702e-07 3.08526e-08 1.00727e-06 0.0005 1.46608e-07 
171 1 0.0160976 0.0222258 0.0158802 -0.00864829 -0.0073656 0.0138672 0 0 -1.43822e-06 0.0005 1.46608e-07 
173 1 0.0189769 0.0148264 0.014623 -0.00186541 0.000435009 0.00195556 1.65587e-06 1.29934e-06 -6.86576e-08 0.0005 1.46608e-07 
174 1 0.0176218 0.0146789 0.0143066 -0.00714365 -0.000567059 -0.0078119 4.96542e-08 -2.26215e-07 6.0566e-08 0.0005 1.46608e-07 
177 1 0.0238626 0.0210643 0.00786017 -2.76881e-05 -0.0187217 -0.0111695 -5.74696e-10 -7.4227e-09 8.77491e-09 0.0005 1.46608e-07 
179 1 0.0216496 0.0147947 0.013124 0.00220005 0.0031768 0.0196726 8.82891e-07 -3.02329e-07 -1.97576e-07 0.0005 1.46608e-07 
185 1 0.0280872 0.0148581 0.0105434 0.000216489 -0.00633961 0.0213378 -5.30262e-09 1.05644e-08 1.43906e-08 0.0005 1.46608e-07 
186 1 0.0264989 0.0185845 0.0158087 0.000866973 0.0155246 0.00300317 -6.12243e-09 5.86454e-09 -3.41974e-08 0.0005 1.46608e-07 
187 1 0.0257543 0.021238 0.0152613 0.00185507 0.0112175 -0.0080821 4.69384e-05 -8.00263e-06 -1.36851e-05 0.0005 1.46608e-07 
191 1 0.0216411 0.0221608 0.0146762 0.0119601 0.00292857 -0.00145215 -1.23435e-07 3.79736e-07 -1.31987e-06 0.0005 1.46608e-07 
193 1 0.019765 0.023003 0.0135561 -0.00285524 0.00169623 -0.00552744 -1.16303e-09 7.92713e-09 6.56528e-07 0.0005 1.46608e-07 
194 1 0.0258138 0.0229685 0.0132737 0.000647361 0.0121776 -0.0189259 6.39308e-09 -8.58463e-09 -2.90083e-09 0.0005 1.46608e-07 
197 1 0.0272338 0.0156983 0.0142227 -0.00951978 0.0212198 0.00350989 -0.011071 -0.00926826 0.013423 0.0005 1.46608e-07 
199 1 0.0212519 0.0239295 0.0131876 -0.000465202 0.000428232 -0.000229963 -7.40094e-07 4.22596e-07 -5.84341e-07 0.0005 1.46608e-07 
200 1 0.0165029 0.0238063 0.0137937 -9.29188e-05 0.000220359 0.000515718 2.79476e-06 2.30016e-06 2.8039e-07 0.0005 1.46608e-07 
201 1 0.0217752 0.0147671 0.0121325 0.000577973 0.003256 0.0198378 2.98236e-09 5.53844e-09 -9.73231e-09 0.0005 1.46608e-07 
205 1 0.0274527 0.0151874 0.0132741 0.00147688 0.00704326 0.0144082 -5.08789e-09 2.63088e-08 3.1434e-08 0.0005 1.46608e-07 
206 1 0.0151498 0.0147489 0.0146632 0.00520136 -0.00546636 0.00280601 4.53351e-08 5.28472e-08 -2.78745e-07 0.0005 1.46608e-07 
211 1 0.0182162 0.0143169 0.0150247 -0.00496858 -0.00169675 -0.00985692 7.64913e-07 2.12685e-06 3.8821e-06 0.0005 1.46608e-07 
215 1 0.0268146 0.0190088 0.00598366 -1.911e-14 -3.07692e-15 3.11554e-13 0 4.96308e-23 0 0.0005 1.46608e-07 
220 1 0.0204763 0.023357 0.0142562 0.00203002 -0.000704679 0.000649325 1.00073e-06 1.14048e-06 -1.81574e-06 0.0005 1.46608e-07 
221 1 0.0205608 0.0185886 0.0159255 0.000508844 0.0207001 0.00204163 -1.68199e-10 2.04559e-09 -1.38886e-08 0.0005 1.46608e-07 
224 1 0.017338 0.0204475 0.0165632 1.0066e-09 0.0238481 -0.00648742 1.14977e-15 -4.3562e-09 -1.62798e-08 0.0005 1.46608e-07 
225 1 0.0208427 0.0216825 0.0150798 0.010825 0.00946197 -0.00719915 -5.71038e-07 1.01418e-06 -7.17481e-07 0.0005 1.46608e-07 
226 1 0.0316131 0.0222997 0.0143265 0.000714912 0.0118608 -0.0147342 -6.63899e-09 3.73741e-09 -2.33846e-08 0.0005 1.46608e-07 
227 1 0.0154302 0.0152709 0.0138578 0.00312542 0.00387913 0.00812522 3.9428e-08 -7.07597e-08 -1.89566e-07 0.0005 1.46608e-07 
228 1 0.0228332 0.0151243 0.0136042 -0.00616147 -0.00277651 -0.00942607 -1.45153e-07 -1.02655e-07 -1.36527e-07 0.0005 1.46608e-07 
229 1 0.029427 0.0192363 0.00718979 0.000214275 -0.0210736 -0.00189059 1.34313e-08 4.13644e-08 6.34918e-08 0.0005 1.46608e-07 
232 1 0.0221996 0.00109062 0.0435188 9.58743e-317 9.68145e-317 4.97437e-14 0 0 0 0.0005 1.46608e-07 
235 1 0.0168453 0.0226345 0.0153521 -0.00146957 -0.0187846 0.0126946 0 0 -1.43822e-06 0.0005 1.46608e-07 
237 1 0.0292551 0.0183282 0.00726349 0.000359239 -0.0199116 0.00400256 -9.58302e-09 -1.75372e-08 2.13994e-08 0.0005 1.46608e-07 
239 1 0.0204706 0.0208794 0.0155489 0.00972573 0.00818672 -0.00377257 -3.04876e-07 7.18216e-07 -3.0699e-07 0.0005 1.46608e-07 
240 1 0.0224829 0.0223205 0.0157806 0.0617055 0.0188911 -0.0296051 0 0 -1.43822e-06 0.0005 1.46608e-07 
241 1 0.0229199 0.0210428 0.0172923 -0.0725121 0.0673568 -0.0500689 0 0 -1.43822e-06 0.0005 1.46608e-07 
242 1 0.0169508 0.0143854 0.0135429 0.00783887 -0.00524156 -0.00443776 -6.27644e-06 3.74763e-06 -1.73033e-05 0.0005 1.46608e-07 
246 1 0.015899 0.0229213 0.0151895 0.00124815 0.00540356 0.0228785 0 0 -1.43822e-06 0.0005 1.46608e-07 
247 1 0.0322754 0.0196312 0.0157778 0.000953048 0.0125454 -0.003074 5.27378e-06 -7.34842e-06 3.92188e-07 0.0005 1.46608e-07 
248 1 0.014848 0.0215304 0.0153588 0.0045619 -0.00151914 0.00309113 -2.572e-07 3.9465e-06 -3.30735e-06 0.0005 1.46608e-07 
250 1 0.0205667 0.0236157 0.0152178 0.000440456 0.00480738 -0.00102412 6.65105e-07 -5.61561e-07 6.40474e-07 0.0005 1.46608e-07 
251 1 0.0232341 0.0197033 0.0167109 3.01881e-09 0.0245005 -0.00331123 5.46126e-15 -2.46303e-09 -1.66892e-08 0.0005 1.46608e-07 
252 1 0.0181742 0.0153048 0.015179 -0.00290202 -0.0050084 -0.000708375 2.25469e-08 -2.03931e-07 -1.32449e-07 0.0005 1.46608e-07 
253 1 0.017229 0.0240382 0.0131521 2.90121e-05 0.000317716 4.17357e-05 8.47672e-07 1.53969e-07 1.79285e-07 0.0005 1.46608e-07 
256 1 0.0203172 0.0137704 0.0137267 0.000398267 -0.00024416 0.000694602 5.81214e-08 -5.42834e-08 -3.63889e-08 0.0005 1.46608e-07 
257 1 0.0220184 0.0147309 0.0140512 0.00429018 0.00322988 0.0183474 5.0131e-07 -1.33434e-07 -5.69998e-08 0.0005 1.46608e-07 
258 1 0.0279393 0.014762 0.0114293 0.000642037 8.00359e-05 0.0205025 -1.08199e-08 -3.46455e-08 -3.10164e-08 0.0005 1.46608e-07 
260 1 0.108836 0.0200055 0.00584234 7.67101e-16 -1.26234e-15 -6.97605e-15 0 0 0 0.0005 1.46608e-07 
262 1 0.0232389 0.0173128 0.016956 -0.0760904 -0.0997871 -0.0475925 0 0 -1.43822e-06 0.0005 1.46608e-07 
263 1 0.022997 0.0147357 0.0145166 -0.00461905 -0.000594975 -0.00710318 -6.36662e-08 1.25639e-07 -1.27113e-06 0.0005 1.46608e-07 
268 1 0.0159938 0.0144685 0.014055 -0.00635398 -0.0133567 -0.0338044 2.01518e-07 2.35196e-07 -1.57903e-06 0.0005 1.46608e-07 
269 1 0.0212724 0.014032 0.0138644 0.000334943 0.000731378 -0.00106011 7.60315e-09 -7.05784e-08 5.44161e-08 0.0005 1.46608e-07 
270 1 0.0189486 0.0234633 0.0116565 0.000415609 -2.49898e-05 -0.0147979 1.39747e-07 -2.33011e-07 -4.58018e-07 0.0005 1.46608e-07 
271 1 0.02438 0.01575 0.0155628 -0.00295049 -0.00110803 -0.00377072 -3.40991e-08 -4.60316e-08 -6.86672e-09 0.0005 1.46608e-07 
272 1 0.0222921 0.0234823 0.0151684 -0.0269068 0.000863385 -0.0165894 -3.31471e-07 2.36052e-07 -3.70585e-07 0.0005 1.46608e-07 
273 1 0.0220009 0.0152141 0.0149264 0.00405629 0.00942169 0.0149217 4.77558e-07 -2.9439e-08 2.51001e-07 0.0005 1.46608e-07 
274 1 0.016599 0.0147652 0.0126865 0.00115271 0.000266937 -0.00209176 0 0 -1.43822e-06 0.0005 1.46608e-07 
275 1 0.0158075 0.0215845 0.0151687 0.00413759 0.00117013 -0.000832316 5.89221e-08 1.15682e-06 4.49253e-07 0.0005 1.46608e-07 
277 1 0.0219968 0.0237768 0.0138368 -0.000394511 -0.000248608 -0.000355871 6.63154e-07 4.21953e-07 6.99404e-07 0.0005 1.46608e-07 
282 1 0.0141978 0.0227818 0.0153053 -0.000585726 0.000223614 0.00182072 1.0547e-07 -1.41338e-06 9.68632e-08 0.0005 1.46608e-07 
283 1 0.0251985 0.019581 0.0167384 -9.69007e-09 0.0246791 -0.00233828 -2.23873e-14 -1.46458e-09 -1.68526e-08 0.0005 1.46608e-07 
284 1 0.00937694 0.00505359 0.0435188 -9.68799e-317 -9.69932e-317 9.23294e-13 0 0 0 0.0005 1.46608e-07 
286 1 0.0184253 0.0236487 0.0154333 0.00185811 -0.000476923 -0.002404 -8.84928e-07 -3.71844e-07 3.39977e-07 0.0005 1.46608e-07 
288 1 0.0178716 0.0243887 0.0138331 -0.000217825 -2.39984e-05 2.22913e-05 3.87775e-07 3.52339e-07 1.3764e-07 0.0005 1.46608e-07 
289 1 0.0187001 0.0232774 0.0107156 0.00154655 -0.00334948 -0.0158816 8.5233e-08 2.82419e-07 4.43383e-07 0.0005 1.46608e-07 
291 1 0.0146998 0.0179589 0.0158237 0.000556384 0.0200542 0.0050485 1.96793e-11 3.92979e-09 -1.51827e-08 0.0005 1.46608e-07 
294 1 0.0249224 0.0164831 0.0160753 -0.00125075 -0.00791413 -0.00345598 -2.21859e-08 -2.76969e-08 2.26458e-08 0.0005 1.46608e-07 
298 1 0.0190862 0.0231648 0.0148573 0.00812258 0.00718647 -0.00608992 7.71671e-07 -9.11383e-07 1.88641e-06 0.0005 1.46608e-07 
299 1 0.024947 0.0190645 0.00586966 2.57717e-15 5.53047e-16 -4.25297e-14 3.10623e-20 -1.32797e-19 6.35275e-22 0.0005 1.46608e-07 
300 1 0.0260833 0.0202461 0.0156647 0.00404225 0.00791107 -0.00138493 4.64045e-07 -3.34453e-07 -6.55437e-07 0.0005 1.46608e-07 
