ITEM: TIMESTEP
18000000
ITEM: NUMBER OF ATOMS
115
ITEM: BOX BOUNDS ff ff ff
-0.02 0.43
-0.02 0.06
-0.02 0.07
ITEM: ATOMS id type x y z vx vy vz fx fy fz radius mass 
1 1 0.0183414 0.0240795 0.0129016 -3.25103e-05 -0.000498912 6.43204e-06 1.88068e-08 1.0219e-08 6.88221e-09 0.0005 1.46608e-07 
2 1 0.0173281 0.0240337 0.0131023 4.76221e-05 -0.00100361 0.00023207 -8.25331e-06 -7.34778e-07 1.12509e-06 0.0005 1.46608e-07 
4 1 0.0182142 0.0156908 0.00880168 7.91566e-05 -0.0143134 0.0170977 -4.44995e-10 5.13201e-09 1.13787e-08 0.0005 1.46608e-07 
5 1 0.0552425 0.0189586 0.00589144 -9.84479e-15 -1.33744e-14 -1.90504e-13 3.83812e-22 2.77933e-22 2.11758e-22 0.0005 1.46608e-07 
15 1 0.00938048 0.0183393 0.00587271 3.6454e-15 5.3816e-16 -3.6901e-14 -4.57927e-21 3.39343e-20 0 0.0005 1.46608e-07 
16 1 0.0260148 0.0196703 0.00594114 1.76444e-14 2.84165e-15 -2.87664e-13 -2.64698e-23 6.15092e-21 0 0.0005 1.46608e-07 
17 1 0.0368844 0.0180636 0.00730391 0.00241057 -0.017225 0.000600632 7.6308e-09 7.44744e-08 2.51746e-08 0.0005 1.46608e-07 
18 1 0.0366849 0.0218066 0.0435188 -9.6879e-317 9.73506e-317 2.68131e-13 0 0 0 0.0005 1.46608e-07 
20 1 0.0425762 0.0169937 0.00772573 -5.09967e-05 -0.0205212 0.00985282 -6.94154e-10 2.89596e-09 1.1431e-08 0.0005 1.46608e-07 
24 1 0.0346332 0.0166808 0.0150384 0.00101305 0.00780797 0.00496959 2.70057e-09 -3.43249e-09 -2.58687e-08 0.0005 1.46608e-07 
25 1 0.0234847 0.0147522 0.0118821 0.00106261 0.00134038 0.0172128 -1.05869e-07 2.85583e-07 5.75633e-07 0.0005 1.46608e-07 
27 1 0.000591717 0.0149731 0.0435188 9.71467e-317 9.75789e-317 -8.23806e-13 0 0 0 0.0005 1.46608e-07 
28 1 0.0402554 0.0182827 0.0156387 0.00314729 0.0086585 0.00295922 2.16932e-08 -2.23105e-07 2.64013e-08 0.0005 1.46608e-07 
32 1 0.020369 0.0140532 0.0131054 -0.00117954 0.00160857 -0.00422574 -1.4067e-10 -1.75598e-08 3.78566e-08 0.0005 1.46608e-07 
33 1 0.0260312 0.022679 0.00921692 0.000898319 -0.00680139 -0.00973793 -1.56494e-06 -1.98611e-06 -3.38101e-06 0.0005 1.46608e-07 
35 1 0.0219195 0.0239649 0.0140836 0.0236957 0.0713457 0.320663 0 0 -1.43822e-06 0.0005 1.46608e-07 
37 1 0.0386451 0.0233529 0.0119008 0.000548979 0.00186853 -0.0197569 1.42758e-09 -7.51421e-09 -1.44274e-08 0.0005 1.46608e-07 
41 1 0.0199987 0.0226546 0.00919131 0.000373285 -0.0108008 -0.0178497 8.38549e-10 -9.01477e-09 5.93527e-09 0.0005 1.46608e-07 
44 1 0.030147 0.0154675 0.00911109 6.4911e-05 -0.00717767 0.0109242 3.71209e-10 2.41422e-09 1.65825e-09 0.0005 1.46608e-07 
47 1 0.019783 0.0241217 0.0129576 5.95899e-06 -0.000125319 -5.0094e-06 5.75485e-07 2.72975e-08 4.61144e-08 0.0005 1.46608e-07 
49 1 0.003617 0.0285782 0.0435188 -9.68849e-317 -9.75601e-317 2.88878e-12 0 0 0 0.0005 1.46608e-07 
52 1 0.04204 0.0152655 0.00953142 0.000163477 -0.0110274 0.0186215 -2.21338e-09 5.6315e-09 9.94654e-09 0.0005 1.46608e-07 
57 1 0.0177449 0.0174882 0.00600758 2.62555e-15 1.02257e-14 2.12819e-14 2.85874e-21 -2.43522e-21 1.27055e-21 0.0005 1.46608e-07 
59 1 0.0406911 0.0165499 0.0149334 0.00162867 0.00694987 0.00483081 3.24088e-09 4.76275e-08 8.7757e-08 0.0005 1.46608e-07 
62 1 0.0165032 0.0142423 0.0137141 0.0115587 -0.00262729 -0.0105203 2.77916e-08 -3.26753e-08 2.02014e-08 0.0005 1.46608e-07 
63 1 0.0165572 0.0233329 0.0127409 0.00509337 0.000636055 -0.00636955 6.34047e-08 2.50531e-08 -4.66248e-08 0.0005 1.46608e-07 
65 1 0.0396815 0.0207129 0.0154725 0.00398335 0.00469332 -0.000899966 5.87999e-08 -3.15739e-07 1.92443e-07 0.0005 1.46608e-07 
67 1 0.0403846 0.0175886 0.0155439 0.003181 0.0106981 0.00346329 2.38295e-08 -9.78652e-08 -8.96387e-08 0.0005 1.46608e-07 
68 1 0.0409492 0.0154847 0.0139052 0.000492106 0.0119085 0.0167771 -8.03478e-09 2.58892e-08 1.75146e-08 0.0005 1.46608e-07 
71 1 0.0217973 0.0213276 0.0161354 0.189707 -0.376182 0.586842 0 0 -1.43822e-06 0.0005 1.46608e-07 
73 1 0.033606 0.0194093 0.00581187 -7.16948e-15 -4.06793e-14 1.57628e-13 -8.41077e-20 5.13514e-21 -1.90582e-21 0.0005 1.46608e-07 
74 1 0.0312959 0.0201738 0.00737345 0.0002115 -0.0200833 -0.00513767 -1.02995e-09 -8.60138e-09 8.75994e-09 0.0005 1.46608e-07 
76 1 0.0242049 0.0156072 0.00888748 0.00126813 -0.00799479 0.0119027 -4.63692e-09 -8.53561e-09 3.68179e-08 0.0005 1.46608e-07 
79 1 0.054387 0.0178804 0.00601135 -1.30013e-14 -1.7666e-14 -2.51655e-13 6.71009e-21 -7.72918e-21 2.11758e-22 0.0005 1.46608e-07 
84 1 0.0324761 0.0233592 0.0109249 -2.54804e-05 -0.00176635 -0.0227676 -2.05245e-10 -1.24214e-08 -1.93356e-09 0.0005 1.46608e-07 
87 1 0.0388345 0.0231999 0.0127725 0.000690182 0.00583656 -0.0151441 -8.55716e-09 -2.55826e-08 -2.8885e-08 0.0005 1.46608e-07 
88 1 0.0384676 0.0233265 0.0108946 0.000520023 -0.00156479 -0.0142889 1.74917e-09 -1.16535e-08 3.99653e-08 0.0005 1.46608e-07 
89 1 0.0416223 0.0148165 0.0112488 0.000174732 -0.000791327 0.0205329 -4.80958e-10 8.14861e-09 1.7448e-08 0.0005 1.46608e-07 
90 1 0.0307482 0.0175589 0.00745846 8.713e-05 -0.0209115 0.00703368 -1.36712e-09 -1.52042e-09 1.26474e-08 0.0005 1.46608e-07 
92 1 0.0377262 0.0216747 0.00807945 0.000733925 -0.0153439 -0.0116403 -8.2193e-09 -2.30109e-08 -6.62974e-09 0.0005 1.46608e-07 
97 1 0.0193541 0.0218613 0.0148516 -1.12084e-05 0.017393 -0.0145734 -1.09374e-12 -1.108e-08 -1.32209e-08 0.0005 1.46608e-07 
103 1 0.0355904 0.0148504 0.0113413 0.00226403 0.000819286 0.0259628 2.17396e-08 -2.1293e-08 8.41416e-08 0.0005 1.46608e-07 
106 1 0.0196654 0.0214736 0.00794354 0.00137669 -0.0140027 -0.00853967 -1.13325e-08 -4.20544e-08 -1.55537e-08 0.0005 1.46608e-07 
108 1 0.0214483 0.0168437 0.00645098 -2.38448e-14 5.08443e-14 1.8435e-13 -1.6578e-19 -4.44163e-20 -7.41154e-21 0.0005 1.46608e-07 
109 1 0.0266426 0.0233535 0.0119637 0.000343317 0.00213143 -0.0205409 -2.34066e-09 -8.05781e-09 -9.08457e-09 0.0005 1.46608e-07 
110 1 0.0218727 0.02287 0.0141399 1.06296 -0.497156 1.66571 0 0 -1.43822e-06 0.0005 1.46608e-07 
112 1 0.0333255 0.0219063 0.0146666 0.00022548 0.0185573 -0.0137557 -3.44935e-10 -5.2164e-09 -9.46037e-09 0.0005 1.46608e-07 
121 1 0.0586827 0.0172628 0.00598816 1.03802e-14 -2.15391e-14 -2.64999e-13 -4.78441e-21 -1.4426e-21 0 0.0005 1.46608e-07 
122 1 0.043098 0.0191973 0.00718487 0.00145653 -0.0167623 2.37194e-05 -5.52301e-07 2.00837e-07 -1.30167e-06 0.0005 1.46608e-07 
124 1 0.0230146 0.0211751 0.0154374 0.176695 -0.157262 0.105718 0 0 -1.43822e-06 0.0005 1.46608e-07 
125 1 0.0428981 0.0181863 0.00730943 0.000346556 -0.0204224 0.00469463 -3.62925e-09 -2.29383e-09 1.30478e-08 0.0005 1.46608e-07 
126 1 0.0214514 0.0222871 0.0150492 -0.119914 -0.777775 1.82397 0 0 -1.43822e-06 0.0005 1.46608e-07 
128 1 0.0303903 0.00406748 0.0435188 -9.67556e-317 -9.75879e-317 -3.22607e-12 0 0 0 0.0005 1.46608e-07 
130 1 0.0289125 0.0156114 0.014083 0.000209295 0.0103104 0.0165514 1.37383e-09 9.05664e-09 -1.56916e-08 0.0005 1.46608e-07 
131 1 0.0417191 0.0152814 0.0135253 0.000133666 0.0117276 0.0180748 -1.38463e-08 9.97891e-08 1.34829e-07 0.0005 1.46608e-07 
133 1 0.0236744 0.0147846 0.0109222 0.000152372 -0.00327782 0.0209151 2.25084e-09 -2.28021e-09 3.38904e-08 0.0005 1.46608e-07 
135 1 0.0418244 0.0149256 0.0103732 0.00151902 -0.00543009 0.0168496 -1.56275e-08 2.27506e-08 6.18837e-08 0.0005 1.46608e-07 
137 1 0.0465254 0.0191962 0.00590655 2.36993e-15 1.33763e-14 9.20545e-14 -2.04678e-20 8.17916e-21 -6.35275e-22 0.0005 1.46608e-07 
139 1 0.0315992 0.0212001 0.0077379 0.00220979 -0.0130405 -0.00674509 -1.24103e-07 -2.75924e-07 -1.76786e-07 0.0005 1.46608e-07 
141 1 0.0292326 0.0150608 0.0128887 0.000134016 0.00663135 0.0206597 -1.12368e-09 1.25112e-08 1.00119e-09 0.0005 1.46608e-07 
142 1 0.0433768 0.0204726 0.00742213 0.00140773 -0.00883225 -0.00251745 3.28807e-08 3.65631e-07 -7.08925e-09 0.0005 1.46608e-07 
143 1 0.0358388 0.0149374 0.0102114 0.000773929 -0.00495592 0.0182969 -3.98462e-09 6.65625e-09 1.87586e-08 0.0005 1.46608e-07 
147 1 0.0327501 0.0232982 0.0123926 0.00228007 0.00200698 -0.014482 2.56897e-05 -2.07839e-06 3.91678e-05 0.0005 1.46608e-07 
149 1 0.0584376 0.0191695 0.00582359 8.09702e-15 -1.68843e-14 -2.07262e-13 4.65802e-20 3.16579e-20 -8.47033e-22 0.0005 1.46608e-07 
150 1 0.0231854 0.0225562 0.0142591 0.0435635 -0.0615521 0.00108906 -1.92297e-08 5.13549e-06 6.24607e-07 0.0005 1.46608e-07 
157 1 0.0141835 0.0227421 0.0152719 0.0109904 0.0159236 -0.015338 3.12072e-09 -2.01272e-10 -1.75761e-08 0.0005 1.46608e-07 
158 1 0.020084 0.0201843 0.0061153 5.51565e-15 -2.47849e-15 5.04898e-14 -3.57342e-21 1.27055e-21 2.11758e-22 0.0005 1.46608e-07 
160 1 0.040533 0.0170995 0.0153256 0.00277901 0.0100296 0.00617567 -3.77602e-08 -2.83283e-08 2.95511e-08 0.0005 1.46608e-07 
161 1 0.0221348 0.00230077 0.0435188 9.74157e-317 -9.69799e-317 9.23294e-13 0 0 0 0.0005 1.46608e-07 
165 1 0.201805 0.0186174 0.00570934 -3.8561e-20 -1.75915e-21 -1.30474e-21 0 0 0 0.0005 1.46608e-07 
166 1 0.0340325 0.0190992 0.0158062 0.00185947 0.010818 0.000884531 -2.46881e-07 -1.67717e-07 2.64549e-07 0.0005 1.46608e-07 
167 1 0.0188307 0.0177536 0.00736749 0.00105726 -0.01732 0.00623163 -1.493e-08 -4.06605e-08 2.5952e-08 0.0005 1.46608e-07 
173 1 0.0801305 0.0198856 0.00588445 -9.52835e-15 -2.67156e-14 1.14756e-13 -1.72054e-22 0 0 0.0005 1.46608e-07 
174 1 0.0207841 0.0234806 0.0121525 -0.110882 -0.393909 0.342528 0 0 -1.43822e-06 0.0005 1.46608e-07 
179 1 0.067984 0.0193424 0.00575613 3.93916e-15 7.50933e-15 2.61625e-13 9.75081e-21 -2.89844e-21 0 0.0005 1.46608e-07 
185 1 0.0375304 0.0209618 0.00768056 0.00131228 -0.0164457 -0.00703676 -6.03525e-09 -2.968e-08 -2.3728e-09 0.0005 1.46608e-07 
186 1 0.0351779 0.0151298 0.0131787 0.000365507 0.00862416 0.0187871 -1.70143e-09 1.2388e-08 1.88235e-09 0.0005 1.46608e-07 
187 1 0.0339028 0.0197791 0.0156983 0.00130586 0.00604328 -0.000708163 -3.45311e-07 -7.30592e-08 7.94052e-08 0.0005 1.46608e-07 
191 1 0.0231004 0.0152982 0.0138829 0.00428282 0.00384283 0.00674836 -1.74459e-07 -4.5209e-07 -5.3444e-07 0.0005 1.46608e-07 
193 1 0.0245476 0.0198163 0.00585259 2.60876e-15 4.19427e-16 -4.25291e-14 -9.92617e-22 3.32857e-21 0 0.0005 1.46608e-07 
194 1 0.0330367 0.0229106 0.0134584 0.000512998 0.0102039 -0.0186094 4.76647e-10 -7.3505e-09 -8.25404e-09 0.0005 1.46608e-07 
197 1 0.036191 0.0156257 0.00894363 0.000217073 -0.0129694 0.0168968 -1.18245e-09 6.31449e-09 1.01623e-08 0.0005 1.46608e-07 
200 1 0.0227861 0.023472 0.0142242 0.152166 0.0273505 0.187533 0.000478197 2.62754e-05 0.000525809 0.0005 1.46608e-07 
205 1 0.036805 0.0202346 0.00608327 3.14171e-15 -9.73025e-15 4.51432e-14 -2.86906e-19 3.99164e-20 2.92226e-20 0.0005 1.46608e-07 
206 1 0.0210639 0.0231352 0.0134095 0.237263 -0.395167 1.55987 0 0 -1.43822e-06 0.0005 1.46608e-07 
215 1 0.026935 0.0188837 0.00598981 1.43031e-14 2.30456e-15 -2.33189e-13 -3.44107e-22 -1.42275e-21 0 0.0005 1.46608e-07 
225 1 0.0262501 0.0230667 0.00992497 0.0020164 -0.00551849 -0.0146403 -6.00338e-06 -1.46824e-05 -2.86525e-05 0.0005 1.46608e-07 
226 1 0.0413891 0.0148693 0.0124281 3.92305e-05 0.00354872 0.0228824 6.33507e-10 1.2904e-08 -1.4702e-09 0.0005 1.46608e-07 
227 1 0.029504 0.0148038 0.0113946 0.00354839 0.00232491 0.0140903 6.54393e-09 1.20388e-08 9.25206e-08 0.0005 1.46608e-07 
229 1 0.0394061 0.0217057 0.0147605 0.000309725 0.0161923 -0.0135469 -2.04104e-09 -2.60555e-09 -1.20234e-08 0.0005 1.46608e-07 
232 1 0.0221996 0.00109062 0.0435188 9.58743e-317 9.68145e-317 4.97437e-14 0 0 0 0.0005 1.46608e-07 
237 1 0.039138 0.0226007 0.013746 -4.9234e-06 0.0128799 -0.0187597 -2.97029e-08 2.16621e-08 -4.91985e-08 0.0005 1.46608e-07 
241 1 0.0298897 0.0150101 0.0100836 0.000190629 -0.00733005 0.020084 -1.73007e-09 7.88089e-09 9.02855e-09 0.0005 1.46608e-07 
242 1 0.0285189 0.0171482 0.0153391 0.000149267 0.0192033 0.0105602 -1.22625e-09 9.07753e-09 -7.88614e-09 0.0005 1.46608e-07 
247 1 0.0423055 0.0160358 0.00845327 0.00047143 -0.0132444 0.0143359 -2.71139e-09 -1.81687e-09 1.7148e-08 0.0005 1.46608e-07 
252 1 0.0557897 0.0172859 0.0059806 9.81153e-15 1.33359e-14 1.8999e-13 -4.705e-20 4.23516e-21 2.32934e-21 0.0005 1.46608e-07 
253 1 0.0895649 0.0187731 0.00575225 -1.32718e-14 1.88534e-14 2.53775e-13 5.88278e-19 2.01753e-19 1.43996e-20 0.0005 1.46608e-07 
256 1 0.0276408 0.0209059 0.0154132 0.00178657 0.0116983 -0.00546698 -1.55518e-06 2.29413e-06 -1.43052e-06 0.0005 1.46608e-07 
257 1 0.0273454 0.0218944 0.0146131 0.000551514 0.0147097 -0.014227 -3.18125e-09 -2.26771e-09 -1.29709e-08 0.0005 1.46608e-07 
258 1 0.0372448 0.0197581 0.00737242 0.000179058 -0.0211249 -0.0038391 -2.36132e-09 -6.03921e-09 1.01483e-08 0.0005 1.46608e-07 
260 1 0.108836 0.0200055 0.00584234 7.67044e-16 -1.26227e-15 -6.97607e-15 7.94093e-23 -5.29396e-23 0 0.0005 1.46608e-07 
268 1 0.0175372 0.0146169 0.0119484 0.00572013 0.00126286 -0.000169419 0 0 -1.43822e-06 0.0005 1.46608e-07 
269 1 0.0304593 0.0165802 0.00793811 0.000741726 -0.0128777 0.0083287 -3.25634e-07 -5.59659e-07 6.52947e-07 0.0005 1.46608e-07 
270 1 0.0279277 0.019832 0.0157357 0.000682136 0.01928 -0.00435549 -1.04765e-08 1.67326e-08 -1.77066e-08 0.0005 1.46608e-07 
271 1 0.032176 0.0230362 0.00973807 0.000293303 -0.00838166 -0.0189441 -1.7611e-09 -1.3709e-08 -2.09364e-09 0.0005 1.46608e-07 
272 1 0.023753 0.0157549 0.0144878 0.00726441 0.00542761 0.00686693 -4.40022e-07 -4.79105e-07 5.62406e-08 0.0005 1.46608e-07 
274 1 0.0189693 0.0186254 0.00720132 0.000655458 -0.0192888 0.0022413 -7.33786e-09 -2.51495e-08 1.11918e-08 0.0005 1.46608e-07 
275 1 0.028218 0.0182205 0.0157336 0.000975101 0.0201513 0.00419383 -1.32629e-08 2.93767e-08 -1.40954e-09 0.0005 1.46608e-07 
277 1 0.0208569 0.022759 0.0092908 0.000266856 -0.00703751 -0.0121995 -9.12252e-09 -7.88588e-09 2.00018e-08 0.0005 1.46608e-07 
284 1 0.00937694 0.00505359 0.0435188 -9.68799e-317 -9.69932e-317 9.23294e-13 0 0 0 0.0005 1.46608e-07 
288 1 0.021264 0.0141856 0.0135345 -0.00330698 -0.00196847 -8.63995e-05 -4.00924e-08 9.04014e-08 -2.51624e-07 0.0005 1.46608e-07 
291 1 0.022457 0.0221168 0.0148985 0.254897 -0.174817 0.271558 0 0 -1.43822e-06 0.0005 1.46608e-07 
294 1 0.0225443 0.0231031 0.0133309 0.273255 -0.116128 0.26033 -0.000563463 -3.6476e-05 -0.000529897 0.0005 1.46608e-07 
299 1 0.0254808 0.018723 0.00589902 -2.08008e-14 -3.25777e-15 3.38791e-13 -1.01512e-20 -9.15226e-20 -1.90582e-21 0.0005 1.46608e-07 
300 1 0.0343672 0.0176562 0.0154727 0.00034808 0.0201129 0.00716532 -4.34095e-09 7.77909e-09 -8.67866e-09 0.0005 1.46608e-07 
