ITEM: TIMESTEP
25200000
ITEM: NUMBER OF ATOMS
107
ITEM: BOX BOUNDS ff ff ff
-0.02 0.43
-0.02 0.06
-0.02 0.07
ITEM: ATOMS id type x y z vx vy vz fx fy fz radius mass 
1 1 0.0209854 0.0141175 0.0133243 -0.00015426 -0.000447624 0.0007364 -3.96683e-09 -1.27916e-08 2.15835e-08 0.0005 1.46608e-07 
2 1 0.0242546 0.020213 0.00583854 -9.08593e-15 -1.46378e-15 1.48131e-13 -1.32349e-23 7.27919e-23 0 0.0005 1.46608e-07 
4 1 0.0175342 0.0146248 0.0119331 2.77775e-06 -0.000626086 0.00103992 5.6705e-11 -1.33736e-08 2.22082e-08 0.0005 1.46608e-07 
5 1 0.0552529 0.0189972 0.0058882 -1.35331e-17 -1.80988e-17 -2.57117e-16 2.38228e-22 -1.05879e-22 0 0.0005 1.46608e-07 
15 1 0.00938048 0.0183393 0.00587271 3.64508e-15 5.3874e-16 -3.6901e-14 1.42937e-21 6.30312e-21 2.11758e-22 0.0005 1.46608e-07 
16 1 0.0260391 0.0196534 0.00594246 2.09857e-14 3.38092e-15 -3.42138e-13 -1.32349e-23 1.34003e-22 0 0.0005 1.46608e-07 
17 1 0.0440953 0.0232863 0.0106853 -0.00175714 -0.0059609 -0.0215686 -4.23392e-08 -1.52185e-08 -9.26944e-08 0.0005 1.46608e-07 
18 1 0.0366849 0.0218066 0.0435188 -9.6879e-317 9.73506e-317 2.68131e-13 0 0 0 0.0005 1.46608e-07 
20 1 0.0492387 0.0210748 0.00770058 0.000260676 -0.0184285 -0.00972113 -1.35939e-09 -1.04596e-08 6.41392e-09 0.0005 1.46608e-07 
24 1 0.0427966 0.0189138 0.00717134 0.0014564 -0.0116816 -0.00213084 2.2964e-09 3.99299e-08 7.35971e-09 0.0005 1.46608e-07 
25 1 0.0339249 0.0173116 0.00624552 9.59634e-17 -9.48268e-15 -2.8073e-14 -5.28224e-19 1.02809e-19 -1.67289e-20 0.0005 1.46608e-07 
27 1 0.000591717 0.0149731 0.0435188 9.71467e-317 9.75789e-317 -8.23806e-13 0 0 0 0.0005 1.46608e-07 
28 1 0.0468517 0.0152011 0.0132996 0.000311849 0.00691113 0.0208841 1.89917e-08 -2.76966e-08 -5.17175e-08 0.0005 1.46608e-07 
32 1 0.0364748 0.0208476 0.00623738 4.37204e-15 -1.48265e-14 6.83465e-14 -4.36751e-22 7.41154e-22 4.23516e-22 0.0005 1.46608e-07 
33 1 0.032265 0.0233629 0.0111879 0.000108666 -0.000695351 -0.0221473 -1.1629e-09 -1.19388e-08 -4.80102e-09 0.0005 1.46608e-07 
37 1 0.049528 0.0194806 0.00601095 5.78907e-15 -1.24713e-14 -1.29437e-13 1.20835e-20 3.20284e-21 2.11758e-22 0.0005 1.46608e-07 
41 1 0.0281938 0.017178 0.0153529 3.76356e-05 0.0193538 0.0102936 -5.3489e-09 3.2712e-08 2.60523e-09 0.0005 1.46608e-07 
44 1 0.037439 0.0217235 0.0080901 0.00460072 0.00170229 -0.00121665 -1.79479e-08 3.04297e-07 5.61835e-08 0.0005 1.46608e-07 
47 1 0.0226361 0.0158577 0.0145994 0.00466479 0.00103967 -0.000562088 -9.55656e-09 -2.84379e-08 -1.28098e-08 0.0005 1.46608e-07 
49 1 0.003617 0.0285782 0.0435188 -9.68849e-317 -9.75601e-317 2.88878e-12 0 0 0 0.0005 1.46608e-07 
52 1 0.0860181 0.0183082 0.00577269 -1.22584e-15 3.67084e-14 1.26768e-13 -1.93775e-20 -5.29396e-23 -4.23516e-22 0.0005 1.46608e-07 
57 1 0.0177449 0.0174882 0.00600758 2.62574e-15 1.02263e-14 2.12816e-14 -7.94093e-22 -8.47033e-22 4.23516e-22 0.0005 1.46608e-07 
59 1 0.0477126 0.0152348 0.00966259 0.00122488 -0.00812154 0.0179676 -1.2687e-08 -1.68421e-09 2.63117e-08 0.0005 1.46608e-07 
63 1 0.0257607 0.0227978 0.00928894 0.00265098 0.00175233 0.000480858 1.12943e-07 -1.98674e-08 4.19288e-08 0.0005 1.46608e-07 
65 1 0.112778 0.0179068 0.0059233 7.95128e-16 3.44274e-15 1.42026e-14 -1.10247e-20 -8.62915e-21 2.75286e-21 0.0005 1.46608e-07 
67 1 0.0471617 0.0148564 0.012024 2.37887e-05 0.00252036 0.0211243 -2.82702e-10 1.19683e-08 2.36863e-09 0.0005 1.46608e-07 
68 1 0.0452523 0.0173614 0.00620617 -3.1425e-15 -1.74632e-14 -1.20236e-13 -9.66809e-21 2.96462e-21 0 0.0005 1.46608e-07 
73 1 0.0349285 0.0181778 0.00592251 6.35147e-16 6.72226e-15 2.00026e-14 -1.05879e-21 4.23516e-22 0 0.0005 1.46608e-07 
74 1 0.0390384 0.0220761 0.0143898 3.72973e-05 0.0155399 -0.0154199 -1.11378e-09 -5.69865e-09 -1.05792e-08 0.0005 1.46608e-07 
76 1 0.0313417 0.0214455 0.00788501 0.00265511 -0.0119987 -0.00706655 -3.29976e-09 4.56503e-11 1.67375e-08 0.0005 1.46608e-07 
79 1 0.0551402 0.017971 0.00596606 -2.82235e-15 -3.83394e-15 -5.46136e-14 -6.61744e-23 1.32349e-23 -2.11758e-22 0.0005 1.46608e-07 
84 1 0.0402584 0.0169437 0.0152419 0.00448521 0.00812837 0.00302425 4.73815e-09 3.64156e-08 2.55169e-08 0.0005 1.46608e-07 
87 1 0.0459819 0.0183474 0.0157328 8.13706e-05 0.0216288 0.00408563 -6.63065e-10 7.45559e-09 -1.04986e-08 0.0005 1.46608e-07 
88 1 0.0452358 0.021612 0.0149544 0.00175198 0.0149583 -0.0112326 -3.06034e-08 4.74598e-08 -4.62058e-08 0.0005 1.46608e-07 
89 1 0.0482419 0.0166589 0.00794518 0.000496575 -0.0148519 0.011066 -3.76533e-09 -8.56221e-09 2.00993e-08 0.0005 1.46608e-07 
90 1 0.038698 0.0229794 0.0132869 0.000578134 0.0107022 -0.0157765 -9.48761e-08 1.3467e-07 -3.28036e-07 0.0005 1.46608e-07 
92 1 0.044929 0.0224837 0.0141231 0.000165725 0.0141632 -0.0154269 -6.42949e-09 -6.60939e-09 -5.33506e-09 0.0005 1.46608e-07 
97 1 0.0270222 0.0221574 0.014337 0.0002294 0.0142347 -0.0158287 -1.54469e-09 -4.54164e-09 -1.13149e-08 0.0005 1.46608e-07 
103 1 0.0432451 0.0210699 0.00768564 0.00122632 -0.0146744 -0.00750723 3.21814e-09 -1.81064e-08 6.07429e-10 0.0005 1.46608e-07 
108 1 0.0214483 0.0168437 0.00645098 -2.38272e-14 5.08463e-14 1.84351e-13 -1.35208e-19 -6.62803e-20 -6.35275e-22 0.0005 1.46608e-07 
109 1 0.032945 0.0224755 0.0141709 0.00149353 0.0105482 -0.0142436 -8.54984e-09 4.53653e-09 -3.02922e-08 0.0005 1.46608e-07 
112 1 0.0415537 0.0149103 0.010289 0.00101576 -0.00541674 0.0140521 9.85457e-09 1.2542e-08 -6.91356e-08 0.0005 1.46608e-07 
121 1 0.0586827 0.0172628 0.00598816 1.03828e-14 -2.15381e-14 -2.64999e-13 -3.61974e-21 -3.29549e-21 2.11758e-22 0.0005 1.46608e-07 
122 1 0.0792478 0.0194315 0.00576454 1.19898e-14 4.01607e-14 1.70228e-13 -2.01554e-19 -1.74701e-21 1.56701e-20 0.0005 1.46608e-07 
124 1 0.023134 0.0153163 0.013922 -0.00305725 -0.0011857 -0.00444522 -2.32159e-08 -3.62981e-08 -5.79781e-09 0.0005 1.46608e-07 
125 1 0.0497024 0.0223919 0.00895987 -7.6673e-05 -0.0123614 -0.0189239 -3.4428e-10 -1.12488e-08 4.58668e-09 0.0005 1.46608e-07 
128 1 0.0303903 0.00406748 0.0435188 -9.67556e-317 -9.75879e-317 -3.22607e-12 0 0 0 0.0005 1.46608e-07 
130 1 0.0356425 0.0150568 0.00983943 0.00113125 -0.00648914 0.01341 1.28245e-08 4.18646e-08 -1.06407e-07 0.0005 1.46608e-07 
131 1 0.0500879 0.0232572 0.0107207 0.000705341 -0.00435622 -0.0181536 -2.63335e-09 -1.15232e-08 -4.03708e-09 0.0005 1.46608e-07 
133 1 0.0438472 0.0171169 0.00621343 4.9548e-16 -1.55843e-15 -8.51198e-15 -6.22966e-20 -4.2934e-20 4.44692e-21 0.0005 1.46608e-07 
135 1 0.0458231 0.0226893 0.013823 0.000421193 0.00602798 -0.00771317 1.82249e-09 2.0063e-09 5.37815e-09 0.0005 1.46608e-07 
137 1 0.0473953 0.0193073 0.0059321 4.74192e-15 -1.0176e-14 -1.05707e-13 9.84676e-21 3.44107e-21 0 0.0005 1.46608e-07 
139 1 0.039446 0.0204631 0.0155824 0.00299182 0.00836339 -0.00226367 5.80213e-09 -8.55118e-08 4.46726e-08 0.0005 1.46608e-07 
141 1 0.0361093 0.0161112 0.00834843 0.00193235 -0.00926646 0.0103595 -4.6437e-09 6.81422e-09 -3.62955e-09 0.0005 1.46608e-07 
142 1 0.050348 0.0233691 0.0116616 0.000400897 0.00192142 -0.0179309 1.61957e-09 -2.17954e-08 2.75609e-08 0.0005 1.46608e-07 
143 1 0.0435426 0.0219977 0.00834528 0.000719206 -0.0145724 -0.0125737 -6.37115e-09 -1.71996e-08 -3.76818e-09 0.0005 1.46608e-07 
147 1 0.040559 0.0160622 0.0145607 0.000107957 0.0150488 0.0159904 -1.11297e-09 1.08692e-08 -4.8425e-09 0.0005 1.46608e-07 
149 1 0.0584376 0.0191695 0.00582359 8.13076e-15 -1.6838e-14 -2.07264e-13 1.26989e-20 1.031e-20 -2.11758e-22 0.0005 1.46608e-07 
150 1 0.0187138 0.0241108 0.012939 0.00011302 -0.000436658 0.00105151 1.26263e-08 -8.99837e-08 2.86958e-08 0.0005 1.46608e-07 
157 1 0.0200408 0.0140281 0.0130087 -0.000769612 -0.00140579 0.00284936 -3.29344e-09 -1.00846e-08 2.14934e-08 0.0005 1.46608e-07 
158 1 0.020084 0.0201843 0.0061153 5.51539e-15 -2.47805e-15 5.04899e-14 -3.73224e-21 -6.23363e-21 2.11758e-22 0.0005 1.46608e-07 
160 1 0.047462 0.0149065 0.0109141 0.000145094 -0.00290291 0.0194045 -3.40779e-09 9.44732e-09 3.44167e-09 0.0005 1.46608e-07 
161 1 0.0221348 0.00230077 0.0435188 9.74157e-317 -9.69799e-317 9.23294e-13 0 0 0 0.0005 1.46608e-07 
165 1 0.201805 0.0186174 0.00570934 -3.8561e-20 4.0743e-22 8.61844e-22 0 0 0 0.0005 1.46608e-07 
166 1 0.0422483 0.0166417 0.00790755 0.000585326 -0.011672 0.00648284 2.58386e-10 2.61953e-08 -9.87395e-09 0.0005 1.46608e-07 
167 1 0.0293994 0.0148134 0.0110612 0.00190825 -0.00135872 0.00906448 1.40915e-06 9.8552e-07 -5.3583e-06 0.0005 1.46608e-07 
173 1 0.0830234 0.0186618 0.00583976 1.1553e-14 3.23715e-14 -1.39058e-13 -5.49248e-21 6.61744e-21 6.35275e-22 0.0005 1.46608e-07 
174 1 0.0286291 0.0158472 0.0143807 0.000769225 0.00833655 0.00875423 1.02731e-07 8.76638e-07 -1.33251e-07 0.0005 1.46608e-07 
179 1 0.067984 0.0193424 0.00575613 3.90141e-15 7.52838e-15 2.61625e-13 -3.64919e-20 1.42871e-20 0 0.0005 1.46608e-07 
185 1 0.0447144 0.0229325 0.0133799 0.000559486 0.00762275 -0.0178906 -5.07796e-09 -3.90314e-09 -1.53613e-08 0.0005 1.46608e-07 
186 1 0.0429994 0.0197993 0.00726732 0.000684135 -0.0202036 -0.00437714 -1.33897e-08 3.22204e-08 2.81484e-09 0.0005 1.46608e-07 
187 1 0.0417718 0.0153607 0.00943495 0.00146826 -0.00924033 0.0178095 2.39557e-10 -1.65244e-08 8.62461e-09 0.0005 1.46608e-07 
191 1 0.0291721 0.0148207 0.0118013 0.0016053 0.00410423 0.0157614 -1.54336e-07 -7.67594e-07 -1.30211e-06 0.0005 1.46608e-07 
193 1 0.0253288 0.0204564 0.00590683 9.29105e-15 1.49639e-15 -1.51478e-13 0 2.49809e-22 0 0.0005 1.46608e-07 
194 1 0.0414006 0.0148246 0.0112192 0.000173293 -0.00259307 0.0193396 -1.58881e-08 1.59507e-08 -6.84322e-10 0.0005 1.46608e-07 
197 1 0.0437568 0.0226656 0.00914796 1.89743e-05 -0.0109938 -0.0196279 -7.27922e-11 -1.15941e-08 3.46657e-09 0.0005 1.46608e-07 
200 1 0.0305285 0.0178984 0.00735598 0.000351572 -0.0201357 0.0054672 -2.59524e-09 -4.87369e-09 1.16751e-08 0.0005 1.46608e-07 
205 1 0.0383457 0.0197753 0.00590075 6.03373e-15 -2.89583e-14 1.43232e-13 4.52805e-19 1.1922e-19 4.23516e-21 0.0005 1.46608e-07 
215 1 0.026935 0.0188837 0.00598981 1.43031e-14 2.30439e-15 -2.33189e-13 1.19114e-22 1.48562e-21 0 0.0005 1.46608e-07 
225 1 0.0325065 0.0232776 0.0124442 0.00060209 0.00421257 -0.0177076 1.98989e-09 -1.06822e-08 -4.76474e-09 0.0005 1.46608e-07 
226 1 0.0479276 0.0156848 0.00887915 0.00016438 -0.0138515 0.0165951 -1.54976e-09 4.66882e-09 1.13303e-08 0.0005 1.46608e-07 
227 1 0.0367631 0.0188894 0.00735241 -0.000148333 -0.0216959 -0.00330005 1.05247e-08 -1.66534e-09 1.17529e-08 0.0005 1.46608e-07 
229 1 0.0465959 0.0158882 0.0144622 0.000759171 0.0139233 0.0142477 -6.30783e-09 1.76536e-08 1.81801e-09 0.0005 1.46608e-07 
232 1 0.0221996 0.00109062 0.0435188 9.58743e-317 9.68145e-317 4.97437e-14 0 0 0 0.0005 1.46608e-07 
237 1 0.0462095 0.0171845 0.0153892 0.00133104 0.0169599 0.00796804 -1.47969e-08 -5.36048e-08 -5.12649e-09 0.0005 1.46608e-07 
241 1 0.0372378 0.0210552 0.00770808 0.00455516 0.00564035 0.00064699 2.97405e-07 -1.61027e-07 1.41051e-07 0.0005 1.46608e-07 
242 1 0.0354703 0.0148433 0.0108263 0.00017858 -0.00326709 0.0208207 -8.06658e-10 9.22487e-09 7.40699e-09 0.0005 1.46608e-07 
247 1 0.0489064 0.0193818 0.00720608 0.000859308 -0.0180489 -0.00228433 1.13651e-09 7.39049e-09 1.42865e-08 0.0005 1.46608e-07 
252 1 0.0561606 0.0173315 0.00595822 1.40322e-14 1.90623e-14 2.71525e-13 3.70577e-22 5.29396e-23 0 0.0005 1.46608e-07 
253 1 0.0895649 0.0187731 0.00575225 -1.29085e-14 1.90847e-14 2.53776e-13 -4.41926e-19 -1.98523e-21 -2.18111e-20 0.0005 1.46608e-07 
256 1 0.0338558 0.018922 0.0157825 0.000411905 0.0224186 0.00290418 3.68806e-09 4.22734e-10 -9.92087e-09 0.0005 1.46608e-07 
257 1 0.0333444 0.0207484 0.0153782 0.000159436 0.0193878 -0.00859303 -6.62433e-10 -1.07e-10 -1.20071e-08 0.0005 1.46608e-07 
258 1 0.044497 0.0232743 0.0122947 9.5978e-05 0.00480524 -0.0212845 -5.2285e-10 -1.00999e-08 -6.73124e-09 0.0005 1.46608e-07 
260 1 0.108836 0.0200055 0.00584234 7.53187e-16 -1.26238e-15 -6.97776e-15 -2.64698e-23 0 0 0.0005 1.46608e-07 
268 1 0.027963 0.0183035 0.0157764 4.87596e-05 0.0213052 0.00433402 2.62166e-09 7.02929e-09 -1.05618e-08 0.0005 1.46608e-07 
269 1 0.0384957 0.023302 0.0123142 0.000160824 0.00337323 -0.0199978 -8.1948e-10 -8.92199e-09 -1.03798e-08 0.0005 1.46608e-07 
270 1 0.0341322 0.0173096 0.0153596 0.000815667 0.013431 0.00500472 -7.92071e-09 2.99503e-08 1.81226e-09 0.0005 1.46608e-07 
271 1 0.0401007 0.0176268 0.0155108 0.00285771 0.0117731 0.00322958 -8.50862e-09 1.96072e-08 1.39165e-08 0.0005 1.46608e-07 
274 1 0.0248356 0.0190648 0.00719415 0.00109175 -0.0177184 0.000976585 -1.07187e-08 -2.72565e-08 5.96818e-09 0.0005 1.46608e-07 
275 1 0.0344044 0.0164498 0.0149341 0.00159371 0.0106618 0.00889604 3.90265e-09 -4.04232e-08 -3.42823e-08 0.0005 1.46608e-07 
277 1 0.0300931 0.0160532 0.008423 0.000246993 -0.0154025 0.0148926 -2.41547e-09 1.75733e-09 1.32188e-08 0.0005 1.46608e-07 
284 1 0.00937694 0.00505359 0.0435188 -9.68799e-317 -9.69932e-317 9.23294e-13 0 0 0 0.0005 1.46608e-07 
288 1 0.0457039 0.018685 0.00600217 -7.00564e-15 -3.89994e-14 -2.68502e-13 -3.80503e-21 1.87935e-21 -2.11758e-22 0.0005 1.46608e-07 
291 1 0.031723 0.0225244 0.00889536 0.000568648 -0.0119143 -0.014889 -4.98864e-09 -1.87255e-08 -7.80458e-09 0.0005 1.46608e-07 
294 1 0.0239797 0.0191467 0.00594569 -2.27378e-14 -4.66208e-14 -1.52821e-13 8.47033e-22 1.16467e-21 -2.11758e-22 0.0005 1.46608e-07 
299 1 0.0254808 0.018723 0.00589902 -2.08197e-14 -3.17611e-15 3.38791e-13 5.20661e-20 -1.54736e-19 1.69407e-21 0.0005 1.46608e-07 
300 1 0.0425606 0.0180739 0.00732373 0.00101316 -0.0173761 0.00489445 2.23221e-09 1.59942e-09 8.05739e-09 0.0005 1.46608e-07 
