ITEM: TIMESTEP
19800000
ITEM: NUMBER OF ATOMS
109
ITEM: BOX BOUNDS ff ff ff
-0.02 0.43
-0.02 0.06
-0.02 0.07
ITEM: ATOMS id type x y z vx vy vz fx fy fz radius mass 
1 1 0.0197205 0.0157629 0.0152276 0.0125244 0.020007 -0.0121492 2.58978e-07 -2.78212e-08 -1.08021e-06 0.0005 1.46608e-07 
2 1 0.0152381 0.0220912 0.0157695 0.000577579 0.0496655 -0.0328429 8.94863e-09 7.31367e-08 -1.27925e-07 0.0005 1.46608e-07 
4 1 0.0211541 0.0156311 0.00889722 0.000185075 -0.00843724 0.0126616 7.1923e-09 9.9597e-09 3.07965e-08 0.0005 1.46608e-07 
5 1 0.0552425 0.0189586 0.00589144 -9.84543e-15 -1.33744e-14 -1.90504e-13 -3.70577e-22 4.89691e-22 0 0.0005 1.46608e-07 
15 1 0.00938048 0.0183393 0.00587271 3.64618e-15 5.32501e-16 -3.6901e-14 -4.02341e-21 3.21475e-20 0 0.0005 1.46608e-07 
16 1 0.0260148 0.0196703 0.00594114 1.76443e-14 2.84401e-15 -2.87664e-13 1.85288e-22 -7.44463e-22 0 0.0005 1.46608e-07 
17 1 0.0390107 0.0153776 0.00934706 0.000129593 -0.0122603 0.0189829 -5.85943e-10 8.21295e-09 9.65743e-09 0.0005 1.46608e-07 
18 1 0.0366849 0.0218066 0.0435188 -9.6879e-317 9.73506e-317 2.68131e-13 0 0 0 0.0005 1.46608e-07 
20 1 0.044065 0.0151482 0.0132597 0.000240917 0.00855612 0.0191171 -1.21414e-09 1.21802e-08 7.27917e-10 0.0005 1.46608e-07 
24 1 0.036884 0.019775 0.0157393 -0.00492601 0.0130716 -0.0332995 -0.122559 -0.135835 -0.42025 0.0005 1.46608e-07 
25 1 0.0338436 0.0175423 0.00617057 -2.2941e-16 -1.88497e-15 -5.63134e-15 -8.78664e-20 1.03762e-20 -1.69407e-21 0.0005 1.46608e-07 
27 1 0.000591717 0.0149731 0.0435188 9.71467e-317 9.75789e-317 -8.23806e-13 0 0 0 0.0005 1.46608e-07 
28 1 0.0417087 0.0232465 0.0125701 0.00116404 0.00391065 -0.0163216 1.80134e-08 -4.26267e-08 8.17747e-08 0.0005 1.46608e-07 
32 1 0.0210122 0.0240027 0.0129714 -0.000284097 0.00108045 -0.00119525 6.77885e-10 1.05333e-08 1.37027e-08 0.0005 1.46608e-07 
33 1 0.0275084 0.0169924 0.0076976 0.00132377 -0.0152192 0.0088087 -4.29123e-09 -1.12014e-08 1.62381e-08 0.0005 1.46608e-07 
37 1 0.0407489 0.0219721 0.0083579 0.000620337 -0.0147426 -0.0143029 -3.50346e-08 3.24252e-08 -1.53133e-09 0.0005 1.46608e-07 
41 1 0.0220331 0.0193426 0.00718314 0.00330642 -0.00693339 -0.00065535 1.35466e-05 4.04536e-06 6.77645e-06 0.0005 1.46608e-07 
44 1 0.0317453 0.0160115 0.0144947 0.000584126 0.0085927 0.00937708 -8.90337e-08 2.12883e-07 6.72383e-08 0.0005 1.46608e-07 
47 1 0.0204623 0.0146317 0.0119933 0.00431022 -0.000175295 0.00296707 4.37309e-07 -8.36524e-08 -9.46791e-07 0.0005 1.46608e-07 
49 1 0.003617 0.0285782 0.0435188 -9.68849e-317 -9.75601e-317 2.88878e-12 0 0 0 0.0005 1.46608e-07 
52 1 0.0436556 0.0164408 0.0148739 0.00109544 0.0147576 0.011399 1.27452e-08 4.92126e-09 -1.02759e-08 0.0005 1.46608e-07 
57 1 0.0177449 0.0174882 0.00600758 2.62649e-15 1.02269e-14 2.12812e-14 4.49986e-21 -2.64698e-21 1.05879e-21 0.0005 1.46608e-07 
59 1 0.0423676 0.0216228 0.0148549 -0.000111343 0.0178184 -0.0117754 2.68553e-08 -3.67361e-08 5.0021e-08 0.0005 1.46608e-07 
62 1 0.0171701 0.01416 0.0134137 0.000463025 0.000361456 -0.00127706 -5.57463e-09 -1.09152e-08 2.62011e-08 0.0005 1.46608e-07 
63 1 0.0189584 0.0195371 0.0160636 -2.42491e-05 0.0239532 -0.00221395 -5.87664e-09 1.05749e-07 1.12301e-07 0.0005 1.46608e-07 
65 1 0.0415443 0.0233747 0.0116229 0.00062103 0.00114008 -0.0195534 -1.97911e-09 -7.98472e-09 -1.95947e-09 0.0005 1.46608e-07 
67 1 0.0419405 0.0229445 0.0134264 0.00109894 0.00867642 -0.0149202 1.96002e-09 -1.48448e-08 -9.92725e-09 0.0005 1.46608e-07 
68 1 0.0425646 0.0209327 0.0153838 0.00113148 0.0157773 -0.00664973 -3.98171e-09 -1.4095e-08 -1.07143e-08 0.0005 1.46608e-07 
73 1 0.033606 0.0194093 0.00581187 -7.12173e-15 -4.06671e-14 1.57634e-13 4.89162e-20 1.70465e-20 6.14099e-21 0.0005 1.46608e-07 
74 1 0.032787 0.0149917 0.0101134 0.000471495 -0.00575442 0.01886 -3.39157e-09 6.47218e-09 1.44455e-08 0.0005 1.46608e-07 
76 1 0.0265651 0.0147803 0.011171 7.27876e-05 -0.00254515 0.0220168 -2.1727e-09 8.52533e-09 6.73652e-09 0.0005 1.46608e-07 
79 1 0.054387 0.0178804 0.00601135 -1.30157e-14 -1.76581e-14 -2.51655e-13 1.17791e-20 -1.65039e-20 4.23516e-22 0.0005 1.46608e-07 
84 1 0.0339924 0.0191055 0.00732485 9.92291e-05 -0.0220165 -0.00226156 -2.82936e-09 -2.38793e-09 1.06302e-08 0.0005 1.46608e-07 
87 1 0.0409032 0.0225947 0.00902224 0.000119648 -0.011303 -0.0166607 -1.07049e-07 -1.43803e-07 -1.40375e-07 0.0005 1.46608e-07 
88 1 0.0400663 0.0193687 0.00718945 0.000229688 -0.0210364 -0.00175918 -5.38614e-10 -7.24986e-09 1.00146e-08 0.0005 1.46608e-07 
89 1 0.0430005 0.0190355 0.0158241 0.000212961 0.0189281 -0.000728029 -1.86082e-09 1.94543e-08 -1.39484e-08 0.0005 1.46608e-07 
90 1 0.0324716 0.014756 0.0116385 0.00148933 -6.37378e-05 0.0110866 -9.39651e-07 3.22439e-07 3.22616e-06 0.0005 1.46608e-07 
92 1 0.0396565 0.0175489 0.00745464 0.00131598 -0.0165615 0.00630536 3.87074e-09 2.28323e-08 -1.37987e-09 0.0005 1.46608e-07 
97 1 0.0183543 0.0210772 0.00769708 -0.000160939 -0.0176824 -0.00914368 1.02538e-09 -1.13605e-08 5.74008e-09 0.0005 1.46608e-07 
103 1 0.0376136 0.0165672 0.0149973 0.00158111 0.0124973 0.00915626 4.35032e-09 -9.54228e-09 -1.59816e-08 0.0005 1.46608e-07 
106 1 0.021494 0.0169501 0.00772504 0.000598487 -0.0172163 0.00978712 -1.77149e-09 -2.53664e-09 1.34306e-08 0.0005 1.46608e-07 
108 1 0.0214483 0.0168437 0.00645098 -2.386e-14 5.08921e-14 1.84334e-13 2.54904e-20 -5.29396e-23 3.81165e-21 0.0005 1.46608e-07 
109 1 0.0283225 0.0204526 0.00749147 0.000331487 -0.0200252 -0.00716144 -3.17945e-09 -9.70128e-09 6.2154e-09 0.0005 1.46608e-07 
112 1 0.0351234 0.0230127 0.0098794 0.00229441 -0.0070744 -0.0138381 -5.91087e-09 -7.17671e-09 -4.35314e-09 0.0005 1.46608e-07 
121 1 0.0586827 0.0172628 0.00598816 1.0364e-14 -2.15501e-14 -2.64999e-13 3.68592e-20 9.58206e-21 4.23516e-22 0.0005 1.46608e-07 
122 1 0.0450902 0.0155904 0.0091897 -0.406228 -0.763643 -0.368465 -0.255976 -0.408296 -0.173497 0.0005 1.46608e-07 
124 1 0.0187716 0.0204557 0.0157155 -6.76434e-06 0.0219427 -0.00731448 1.81473e-08 -1.07322e-07 -2.25184e-08 0.0005 1.46608e-07 
125 1 0.0444022 0.0147931 0.0120651 0.000577712 0.00179203 0.0215049 -9.82342e-09 1.37535e-08 1.41235e-08 0.0005 1.46608e-07 
128 1 0.0303903 0.00406748 0.0435188 -9.67556e-317 -9.75879e-317 -3.22607e-12 0 0 0 0.0005 1.46608e-07 
130 1 0.0303638 0.021637 0.0149454 1.20786e-05 0.0144392 -0.00972989 5.30165e-09 -1.6602e-08 -5.09911e-09 0.0005 1.46608e-07 
131 1 0.044447 0.0161056 0.0146253 0.00119211 0.0136403 0.0115321 -6.48825e-09 3.49564e-08 1.78602e-08 0.0005 1.46608e-07 
133 1 0.0227995 0.0223438 0.00886338 0.00237768 -0.00958398 -0.0106241 3.10841e-09 8.40934e-09 1.35828e-08 0.0005 1.46608e-07 
135 1 0.0432133 0.0178335 0.0156191 0.00023349 0.0213385 0.0076231 2.67347e-09 1.01753e-08 -8.37648e-09 0.0005 1.46608e-07 
137 1 0.0465254 0.0191962 0.00590655 2.34701e-15 1.33823e-14 9.20542e-14 2.22081e-20 -1.43996e-20 1.48231e-21 0.0005 1.46608e-07 
139 1 0.0332172 0.0158102 0.00868303 0.000165854 -0.0141733 0.0158613 -7.10226e-10 3.71595e-09 1.10691e-08 0.0005 1.46608e-07 
141 1 0.0307911 0.0200449 0.0156754 0.00036221 0.0196889 -0.00532516 -1.57009e-09 4.40611e-09 -1.18273e-08 0.0005 1.46608e-07 
142 1 0.0452637 0.0161843 0.0083099 0.00125064 -0.00415649 0.00262749 3.84226e-09 1.91481e-08 -4.23189e-08 0.0005 1.46608e-07 
143 1 0.0379462 0.0153953 0.013711 0.000453642 0.00726271 0.0125016 9.21536e-09 2.62901e-09 -2.53127e-08 0.0005 1.46608e-07 
147 1 0.0346102 0.0215476 0.00799379 0.00193217 -0.00873692 -0.00559164 -2.51097e-05 1.33978e-05 3.19512e-05 0.0005 1.46608e-07 
149 1 0.0584376 0.0191695 0.00582359 8.08687e-15 -1.68631e-14 -2.07264e-13 4.82478e-20 1.83171e-20 4.23516e-22 0.0005 1.46608e-07 
150 1 0.0207175 0.0203432 0.0157847 2.66683e-05 0.0219001 -0.00722873 2.38386e-08 -1.91212e-07 -3.60938e-08 0.0005 1.46608e-07 
157 1 0.0184785 0.0234697 0.0117645 0.00144374 -4.51384e-05 -0.000497409 1.24475e-08 8.28383e-09 6.49458e-09 0.0005 1.46608e-07 
158 1 0.020084 0.0201843 0.0061153 5.5153e-15 -2.47673e-15 5.049e-14 -1.24408e-21 1.57495e-21 0 0.0005 1.46608e-07 
160 1 0.0421798 0.022381 0.0141981 3.19456e-05 0.0146869 -0.016508 -8.83027e-10 -1.128e-08 -6.4899e-09 0.0005 1.46608e-07 
161 1 0.0221348 0.00230077 0.0435188 9.74157e-317 -9.69799e-317 9.23294e-13 0 0 0 0.0005 1.46608e-07 
165 1 0.201805 0.0186174 0.00570934 -3.8561e-20 -8.56408e-22 8.61844e-22 0 0 0 0.0005 1.46608e-07 
166 1 0.0363366 0.0215767 0.0148847 9.66846e-05 0.0174582 -0.0125962 -6.07008e-10 -3.27274e-09 -1.11947e-08 0.0005 1.46608e-07 
167 1 0.0230382 0.0229194 0.00953573 0.00203825 -0.00256771 -0.0082756 3.78169e-09 6.17668e-08 8.3153e-08 0.0005 1.46608e-07 
173 1 0.0801305 0.0198856 0.00588445 -9.52838e-15 -2.67156e-14 1.14756e-13 5.29396e-23 0 0 0.0005 1.46608e-07 
174 1 0.0213138 0.0147071 0.0125127 0.00343802 0.00174998 0.000691946 -7.38223e-07 -2.03606e-08 -8.68925e-07 0.0005 1.46608e-07 
179 1 0.067984 0.0193424 0.00575613 3.90394e-15 7.52825e-15 2.61625e-13 1.45154e-20 -1.61863e-20 0 0.0005 1.46608e-07 
185 1 0.0394439 0.0167978 0.00782131 0.00240637 -0.00838208 0.00453413 -2.10005e-09 3.36261e-08 -3.60583e-08 0.0005 1.46608e-07 
186 1 0.0373276 0.0176089 0.0154636 0.000415614 0.0196634 0.00671224 -2.33042e-09 9.24181e-09 -8.28816e-09 0.0005 1.46608e-07 
187 1 0.0356144 0.0233534 0.0120585 0.000676256 0.00241045 -0.0192332 -7.20345e-09 -1.15424e-08 -1.35286e-08 0.0005 1.46608e-07 
191 1 0.0251965 0.0183325 0.0163504 0.0223624 -0.104839 0.0492565 0 0 -1.43822e-06 0.0005 1.46608e-07 
193 1 0.0245476 0.0198163 0.00585259 2.60855e-15 4.19125e-16 -4.25291e-14 -1.05879e-22 -8.94513e-21 0 0.0005 1.46608e-07 
194 1 0.034862 0.022482 0.00890496 5.60126e-05 -0.0121395 -0.0185814 -1.49503e-11 -1.08877e-08 3.83571e-09 0.0005 1.46608e-07 
197 1 0.0383758 0.014875 0.0122595 0.000184569 0.0018435 0.0221226 2.42448e-11 1.06005e-08 7.69921e-10 0.0005 1.46608e-07 
200 1 0.025255 0.019416 0.0162587 -0.0440878 0.00674563 0.0125776 0 0 -1.43822e-06 0.0005 1.46608e-07 
205 1 0.036805 0.0202346 0.00608327 2.93612e-15 -9.74329e-15 4.51534e-14 -1.35246e-18 -1.65224e-19 5.03985e-20 0.0005 1.46608e-07 
215 1 0.026935 0.0188837 0.00598981 1.43032e-14 2.30407e-15 -2.33189e-13 -1.32349e-22 1.86281e-21 -2.11758e-22 0.0005 1.46608e-07 
225 1 0.0279717 0.0188914 0.00717995 0.00134561 -0.0209729 0.00136569 -1.81095e-08 4.3924e-09 -2.1576e-08 0.0005 1.46608e-07 
226 1 0.042774 0.0200871 0.0156543 0.00022101 0.020751 -0.00463795 -2.80762e-09 -1.88478e-09 -1.2908e-08 0.0005 1.46608e-07 
227 1 0.0310321 0.018826 0.0158358 0.000572067 0.0219204 0.00274663 3.82289e-09 3.07333e-09 -1.0511e-08 0.0005 1.46608e-07 
229 1 0.0413734 0.0233168 0.0107555 0.00126987 -0.00434133 -0.0170564 -1.51298e-08 -9.81682e-09 -3.29018e-08 0.0005 1.46608e-07 
232 1 0.0221996 0.00109062 0.0435188 9.58743e-317 9.68145e-317 4.97437e-14 0 0 0 0.0005 1.46608e-07 
237 1 0.0410995 0.0230256 0.00982526 0.00023275 -0.00803863 -0.0194686 5.12596e-08 4.45544e-08 6.28656e-08 0.0005 1.46608e-07 
241 1 0.0313854 0.0173365 0.0154597 0.000658925 0.0179927 0.00739671 -3.58237e-09 1.39669e-08 -7.04483e-09 0.0005 1.46608e-07 
242 1 0.0301329 0.0224935 0.014061 0.000241933 0.0119893 -0.0166935 -2.96224e-10 -4.05772e-09 -1.10407e-08 0.0005 1.46608e-07 
247 1 0.043802 0.0157448 0.014252 0.001018 0.0109855 0.0120582 -5.11349e-09 6.93998e-08 6.34721e-08 0.0005 1.46608e-07 
252 1 0.0557897 0.0172859 0.0059806 9.80046e-15 1.33415e-14 1.89991e-13 -4.48663e-21 -1.93759e-20 1.69407e-21 0.0005 1.46608e-07 
253 1 0.0895649 0.0187731 0.00575225 -1.294e-14 1.91252e-14 2.53772e-13 -1.13502e-19 -7.8205e-20 1.05879e-21 0.0005 1.46608e-07 
256 1 0.0290228 0.0228806 0.0094339 0.000579262 -0.00843562 -0.0159323 6.27572e-09 -6.24168e-09 1.66554e-08 0.0005 1.46608e-07 
257 1 0.0287247 0.0220065 0.0083287 0.000192398 -0.0158618 -0.0133465 7.88434e-09 -9.16312e-08 -7.05404e-08 0.0005 1.46608e-07 
258 1 0.0392776 0.0162409 0.00821557 0.00157667 -0.00218216 0.000113367 7.58611e-09 6.75973e-08 -4.26899e-08 0.0005 1.46608e-07 
260 1 0.108836 0.0200055 0.00584234 7.53175e-16 -1.27336e-15 -6.976e-15 0 -1.28114e-20 2.96462e-21 0.0005 1.46608e-07 
268 1 0.0175263 0.0234442 0.0115824 0.00255032 -0.000268105 -0.00352835 1.72703e-08 -2.75893e-10 7.87158e-08 0.0005 1.46608e-07 
269 1 0.031974 0.0153572 0.0136521 0.00010313 0.0107337 0.0194174 -2.53521e-08 3.70226e-08 6.11914e-08 0.0005 1.46608e-07 
270 1 0.0295927 0.023348 0.0119717 0.00029721 0.00196063 -0.0202773 1.86528e-09 -1.19031e-08 2.77071e-09 0.0005 1.46608e-07 
271 1 0.0336231 0.017496 0.00750319 -0.000131225 -0.0213878 0.00694646 1.20925e-08 2.2269e-08 -1.79669e-08 0.0005 1.46608e-07 
274 1 0.0197878 0.0200669 0.0159732 2.88462e-05 0.0234528 -0.00489057 1.80185e-07 1.13214e-07 1.32249e-06 0.0005 1.46608e-07 
275 1 0.0298002 0.0231592 0.0128648 0.000264161 0.00760384 -0.0182727 5.49636e-09 -5.34103e-08 3.86286e-08 0.0005 1.46608e-07 
277 1 0.0251448 0.0213715 0.0162085 0.00707431 -0.036238 -0.0186988 -4.67881e-07 -1.93806e-08 -8.18046e-07 0.0005 1.46608e-07 
284 1 0.00937694 0.00505359 0.0435188 -9.68799e-317 -9.69932e-317 9.23294e-13 0 0 0 0.0005 1.46608e-07 
288 1 0.0239252 0.0224548 0.0143997 -0.00135085 0.0063455 -0.00911458 -5.51139e-09 -2.89756e-08 -3.48578e-08 0.0005 1.46608e-07 
291 1 0.0271572 0.0156621 0.0088377 0.00180771 -0.00641677 0.0103533 -2.26147e-10 -2.35118e-08 8.09903e-08 0.0005 1.46608e-07 
294 1 0.0246375 0.0213478 0.0153049 -0.00729766 0.00803942 -0.00522633 -1.8043e-07 -3.04721e-08 2.81729e-08 0.0005 1.46608e-07 
299 1 0.0254808 0.018723 0.00589902 -2.08165e-14 -3.18679e-15 3.38791e-13 -6.18334e-20 2.38837e-19 -1.69407e-21 0.0005 1.46608e-07 
300 1 0.0366303 0.0205443 0.0155098 0.00104599 0.0157184 -0.00872195 0.000553426 -0.00201739 0.0132173 0.0005 1.46608e-07 
