ITEM: TIMESTEP
1200000
ITEM: NUMBER OF ATOMS
224
ITEM: BOX BOUNDS ff ff ff
-0.02 0.43
-0.02 0.06
-0.02 0.07
ITEM: ATOMS id type x y z vx vy vz fx fy fz radius mass 
1 1 0.0216349 0.0233373 0.0144139 0.0013946 0.00318061 0.00054516 -4.86336e-06 3.33664e-06 -4.27419e-06 0.0005 1.46608e-07 
2 1 0.0180379 0.0229526 0.0150636 -1.1303e-06 0.00150362 0.000535417 -1.15777e-06 1.61942e-06 -2.32937e-07 0.0005 1.46608e-07 
3 1 0.0257374 0.0202992 0.0166102 0.000350931 0.00133214 0.000876446 -6.59389e-08 -6.80463e-07 -4.77889e-07 0.0005 1.46608e-07 
4 1 0.018261 0.0222791 0.0157752 0.00264419 -0.000622583 -0.000539776 -1.167e-07 -6.66217e-08 -1.21572e-06 0.0005 1.46608e-07 
5 1 0.0234609 0.0169263 0.015403 -0.000260039 0.0146911 0.00782562 3.07248e-08 -5.63564e-08 -4.12849e-08 0.0005 1.46608e-07 
6 1 0.0177813 0.0151336 0.0135328 0.000155976 0.00984555 0.0183257 7.43269e-09 -8.88368e-08 -1.39223e-07 0.0005 1.46608e-07 
7 1 0.0181924 0.014624 0.0141691 0.00262565 0.00723414 0.0134481 -3.71227e-07 -6.85996e-07 -4.35211e-07 0.0005 1.46608e-07 
8 1 0.0245332 0.0206997 0.0166662 0.000159869 0.00605807 -0.00286439 -4.03928e-06 -1.77523e-06 6.51409e-06 0.0005 1.46608e-07 
9 1 0.0207158 0.0240688 0.0131562 0.000316573 -0.000607528 0.000354663 1.90873e-07 -9.12209e-08 2.84413e-07 0.0005 1.46608e-07 
10 1 0.0199999 0.0204877 0.00747478 0.000403164 -0.0197776 -0.00724152 -2.15753e-09 -1.19529e-08 6.5067e-09 0.0005 1.46608e-07 
11 1 0.0157002 0.0230478 0.0134474 0.00355559 0.00100619 -0.00430199 2.91505e-07 3.43863e-07 4.75065e-07 0.0005 1.46608e-07 
12 1 0.0202291 0.0195816 0.00723778 -5.72251e-05 -0.0212591 -0.00516741 2.32128e-09 -6.06983e-09 3.49013e-09 0.0005 1.46608e-07 
13 1 0.0164187 0.023808 0.0139041 0.000360197 0.00023793 -0.000129643 5.77618e-07 3.30494e-08 -5.74736e-07 0.0005 1.46608e-07 
14 1 0.0181184 0.02394 0.0146773 0.000151398 -1.70683e-05 -3.13266e-05 4.10706e-07 4.72229e-07 -8.36945e-07 0.0005 1.46608e-07 
15 1 0.0225658 0.0199939 0.0158641 0.00367767 0.00425656 0.000670583 -4.50439e-07 3.13339e-06 -1.85122e-06 0.0005 1.46608e-07 
16 1 0.0188558 0.0153483 0.0139818 0.000839248 0.00787632 0.0127819 -8.15953e-07 2.70098e-07 1.85157e-06 0.0005 1.46608e-07 
17 1 0.0214868 0.0241023 0.0137936 -0.000453149 0.000279961 -0.000934174 2.4526e-06 1.99507e-07 -3.0032e-06 0.0005 1.46608e-07 
18 1 0.0208278 0.0224793 0.00891525 -0.000311916 -0.00485544 -0.00730097 3.19628e-09 -1.1002e-08 -2.97945e-08 0.0005 1.46608e-07 
19 1 0.0180723 0.0240624 0.0129985 0.000433063 5.17708e-05 2.12678e-06 3.38672e-07 -2.03036e-08 6.85312e-07 0.0005 1.46608e-07 
20 1 0.02298 0.0180415 0.015842 0.0056411 -0.00210225 -0.00117963 -4.69378e-07 1.29375e-06 3.56094e-06 0.0005 1.46608e-07 
21 1 0.0211341 0.0233525 0.0111139 -5.78295e-05 -0.000149444 -0.0153722 -1.24263e-07 2.22603e-07 1.77488e-07 0.0005 1.46608e-07 
22 1 0.0186244 0.0138511 0.0133094 -0.00689503 -0.0181897 0.0537055 2.14398e-07 5.62354e-07 -1.54787e-06 0.0005 1.46608e-07 
23 1 0.0170992 0.0239493 0.0131622 0.001165 0.000370743 -0.000974737 -5.49978e-07 -2.16502e-08 1.35532e-06 0.0005 1.46608e-07 
24 1 0.0227662 0.0190176 0.0159556 0.000966679 0.0174199 0.00068351 -4.37304e-07 9.53789e-06 8.36495e-07 0.0005 1.46608e-07 
25 1 0.0197309 0.0146274 0.0119288 6.08726e-07 0.000309955 -0.000514507 3.139e-11 -1.619e-08 2.68806e-08 0.0005 1.46608e-07 
26 1 0.0168245 0.0229253 0.0136727 0.00165549 0.00153922 -0.0029311 4.88246e-10 -9.48493e-08 -1.26127e-07 0.0005 1.46608e-07 
27 1 0.0194972 0.0178867 0.00736575 0.000169054 -0.0185337 0.00649255 -5.33155e-09 -1.59827e-07 6.73325e-08 0.0005 1.46608e-07 
28 1 0.0187693 0.0145917 0.0126182 0.056923 0.0526956 0.100323 0 0 -1.43822e-06 0.0005 1.46608e-07 
29 1 0.0190834 0.0226392 0.015335 0.00329816 -0.000794836 0.000205146 -2.68034e-09 3.89384e-08 -9.72356e-07 0.0005 1.46608e-07 
30 1 0.0194074 0.0240851 0.0143847 0.00164067 0.00133701 -0.00664869 0 0 -1.43822e-06 0.0005 1.46608e-07 
31 1 0.0186595 0.0237952 0.0137661 0.000329707 -8.36103e-05 4.30223e-05 -3.4548e-07 -3.52335e-07 -7.23247e-07 0.0005 1.46608e-07 
32 1 0.0220157 0.0233925 0.0112568 0.000836932 -5.85582e-05 -0.00932272 4.78835e-08 4.94666e-08 -2.2365e-07 0.0005 1.46608e-07 
33 1 0.0209527 0.0234976 0.0160487 0.0270578 -0.0164387 -0.0296743 0 0 -1.43822e-06 0.0005 1.46608e-07 
34 1 0.0181805 0.0146959 0.0117045 0.00103855 -0.0023707 0.0163828 -1.7807e-08 -8.89873e-09 3.3305e-08 0.0005 1.46608e-07 
35 1 0.0202308 0.0213156 0.00784351 0.000955291 -0.0160926 -0.00954381 -5.09587e-09 -2.33878e-08 5.51374e-09 0.0005 1.46608e-07 
36 1 0.019811 0.0244129 0.013501 0.0015134 -0.000723348 -0.00135251 -1.8123e-07 3.36266e-08 1.78981e-07 0.0005 1.46608e-07 
37 1 0.0220345 0.0220357 0.0148586 0.00260703 0.00341791 -0.00349144 -3.47604e-06 1.0257e-05 -7.54685e-06 0.0005 1.46608e-07 
38 1 0.0185445 0.015258 0.016595 -0.0213745 -0.123794 0.0310139 0 0 -1.43822e-06 0.0005 1.46608e-07 
39 1 0.0229233 0.0228329 0.0158607 0.000144053 6.00447e-05 -0.000184035 -1.63909e-06 2.02695e-07 6.997e-08 0.0005 1.46608e-07 
40 1 0.0216782 0.0229932 0.0153519 0.000757526 0.0007403 0.00514816 0 0 -1.43822e-06 0.0005 1.46608e-07 
41 1 0.0192952 0.0237105 0.0153845 0.00124141 0.000938418 0.000443907 -2.08128e-06 -2.46419e-07 1.09799e-06 0.0005 1.46608e-07 
42 1 0.022349 0.0209141 0.015537 0.005002 0.000338032 -0.00187706 1.84903e-06 -5.9657e-06 -8.47271e-07 0.0005 1.46608e-07 
43 1 0.0156831 0.0236011 0.014549 0.00115865 0.000467234 -0.000359668 -1.36737e-06 -6.93698e-07 -9.67673e-07 0.0005 1.46608e-07 
44 1 0.0188605 0.0232744 0.0145955 0.000792962 0.000458241 0.00105657 -1.23081e-06 6.9996e-08 -1.74164e-06 0.0005 1.46608e-07 
45 1 0.022512 0.0238042 0.0144757 0.000702167 0.00091498 0.000183772 -4.07841e-06 4.22293e-06 2.90302e-06 0.0005 1.46608e-07 
46 1 0.0228766 0.0230099 0.0135081 0.000299072 -0.000181224 -0.00101921 2.19576e-07 1.22384e-06 -3.08771e-07 0.0005 1.46608e-07 
47 1 0.0211032 0.0221939 0.0157263 0.00417018 0.00961352 -0.00827284 -3.9418e-07 1.40324e-06 -9.37241e-07 0.0005 1.46608e-07 
48 1 0.0209147 0.0141033 0.0132647 -0.000106046 5.08187e-05 9.77923e-06 -2.59694e-07 3.57591e-07 1.46147e-07 0.0005 1.46608e-07 
49 1 0.0220836 0.0178964 0.0166488 -3.01259e-09 0.0242183 0.00555566 -1.94554e-14 3.89395e-09 -1.65052e-08 0.0005 1.46608e-07 
50 1 0.022108 0.0235362 0.0132447 0.00102915 0.00181515 -0.00281069 1.13437e-09 -2.33841e-08 -4.06691e-07 0.0005 1.46608e-07 
51 1 0.0164363 0.0232895 0.0128276 0.00312185 0.000950888 -0.00342259 3.63086e-07 2.51254e-08 -2.44966e-07 0.0005 1.46608e-07 
52 1 0.0210331 0.0236185 0.0118984 0.00053657 -0.00513594 -0.00262607 -9.84306e-07 -5.21793e-07 -1.05973e-06 0.0005 1.46608e-07 
53 1 0.0235335 0.0230514 0.0151065 0.000588145 1.41871e-05 0.000162967 1.76049e-08 -4.65795e-07 5.67856e-07 0.0005 1.46608e-07 
54 1 0.0198496 0.0232047 0.0147236 0.000788022 1.9493e-05 0.00123539 -1.22161e-06 -2.28024e-06 1.85546e-06 0.0005 1.46608e-07 
55 1 0.0238631 0.0216246 0.0163516 0.00502911 -0.00283925 -4.95431e-05 -1.03932e-06 4.1691e-06 -4.0293e-06 0.0005 1.46608e-07 
56 1 0.0218693 0.0157306 0.0155959 0.000320702 0.0109928 0.0108324 -8.15889e-09 2.14453e-07 2.87746e-07 0.0005 1.46608e-07 
57 1 0.0175291 0.0235653 0.013972 0.00120977 0.000203658 -0.0010882 -1.23696e-06 4.52272e-07 7.08412e-07 0.0005 1.46608e-07 
58 1 0.0196707 0.0187817 0.00719688 0.000680695 -0.0196288 0.00167248 -1.23444e-08 -5.52833e-08 8.20684e-09 0.0005 1.46608e-07 
59 1 0.0224687 0.0225673 0.0142409 0.00155925 0.000898852 -0.00216368 -8.77481e-07 7.80903e-06 -2.41807e-06 0.0005 1.46608e-07 
60 1 0.0189753 0.0161071 0.00835654 0.000342748 -0.0145344 0.0142631 -5.08417e-09 -4.62917e-09 1.70743e-08 0.0005 1.46608e-07 
61 1 0.0168557 0.0233446 0.0146773 -0.000539762 0.00171157 -0.00101045 9.05568e-07 -5.89108e-07 -9.34929e-07 0.0005 1.46608e-07 
62 1 0.0203258 0.023708 0.0140029 0.00109283 -0.000478512 0.000854988 -7.47544e-07 -1.38587e-06 8.3184e-07 0.0005 1.46608e-07 
63 1 0.0239563 0.0224298 0.0157659 -0.000681013 -0.000497403 0.000323833 -7.16932e-07 -2.60465e-07 -5.39781e-07 0.0005 1.46608e-07 
64 1 0.0241892 0.0162696 0.0149692 0.00254302 0.0112083 0.0084365 -1.17613e-06 2.23406e-07 -2.09229e-07 0.0005 1.46608e-07 
65 1 0.02172 0.0143219 0.0138267 1.69815e-06 -0.000997978 0.00201483 -2.6664e-07 -3.95977e-08 -3.60943e-07 0.0005 1.46608e-07 
66 1 0.0229135 0.0151083 0.0150502 0.00316397 -0.00144524 0.00263073 5.67014e-09 3.71435e-09 -1.43513e-06 0.0005 1.46608e-07 
67 1 0.0219769 0.0147346 0.0150465 0.00278052 0.000131883 0.00403796 -1.74817e-06 7.96989e-07 2.69316e-06 0.0005 1.46608e-07 
68 1 0.0247537 0.0218553 0.0159498 -0.000125919 -0.00124661 0.000485579 8.66233e-08 -1.34769e-06 4.48443e-07 0.0005 1.46608e-07 
69 1 0.0258471 0.019147 0.0167558 -3.76652e-09 0.0247529 -0.000182546 -1.17012e-14 1.0202e-10 -1.68963e-08 0.0005 1.46608e-07 
70 1 0.0253626 0.0212121 0.0164456 0.00160828 0.00242068 -0.000618997 3.08546e-06 2.24354e-06 1.91037e-05 0.0005 1.46608e-07 
71 1 0.0177365 0.0226142 0.0141572 0.0035492 0.000504572 -0.00261649 -6.24506e-07 3.45048e-07 -2.52993e-07 0.0005 1.46608e-07 
72 1 0.0175917 0.0156452 0.0143707 0.000924294 0.0136944 0.016195 -4.82108e-07 2.06267e-07 -3.71e-07 0.0005 1.46608e-07 
73 1 0.0173454 0.0235796 0.0155169 0.000327207 6.38034e-05 -0.00127358 -2.75566e-07 2.04335e-07 3.05068e-07 0.0005 1.46608e-07 
74 1 0.0190728 0.0240945 0.0129064 1.56105e-05 0.000300612 -0.000228732 -6.5797e-08 1.97722e-08 -3.37801e-08 0.0005 1.46608e-07 
75 1 0.0201578 0.0149902 0.014813 0.00320418 0.00148639 0.0012908 -1.05358e-07 -4.11484e-07 -3.64139e-07 0.0005 1.46608e-07 
76 1 0.0163147 0.021074 0.0154576 0.00424612 0.00384276 0.00158514 -1.83232e-07 -1.97785e-06 7.17514e-07 0.0005 1.46608e-07 
77 1 0.0207406 0.0221121 0.0166546 -0.00273076 0.00593207 -0.0110768 -7.73158e-08 2.15961e-07 -1.01302e-06 0.0005 1.46608e-07 
78 1 0.0185448 0.0195244 0.0163822 0.0431721 -0.000706692 -0.036509 -1.28663e-08 1.61536e-08 -1.43945e-06 0.0005 1.46608e-07 
79 1 0.0229703 0.0211812 0.0162735 0.00192866 0.00216991 -0.00434043 2.73841e-06 1.36523e-06 2.65112e-06 0.0005 1.46608e-07 
80 1 0.016534 0.0220259 0.0159447 -0.000706574 0.00140005 -0.00052468 8.57279e-08 -2.18674e-06 2.46549e-06 0.0005 1.46608e-07 
81 1 0.0156445 0.0151864 0.0150826 0.0095139 -0.000954276 -0.0034082 -1.68444e-07 -3.21997e-07 -5.80086e-07 0.0005 1.46608e-07 
82 1 0.0152449 0.0225323 0.0155204 0.00231101 -0.00062665 -0.00282782 -2.55247e-07 -2.30954e-08 -1.41796e-06 0.0005 1.46608e-07 
83 1 0.0199557 0.0217897 0.0159761 -0.000229233 0.0247491 -0.0151092 -4.3013e-09 6.37494e-08 -6.48738e-08 0.0005 1.46608e-07 
84 1 0.0203254 0.0144213 0.0140073 0.00104273 0.00114784 0.000734375 -1.35975e-06 2.42919e-07 -1.61509e-07 0.0005 1.46608e-07 
85 1 0.0180954 0.0201952 0.0157923 0.00923442 0.0092101 -0.00127765 1.39614e-06 -1.95242e-06 1.29159e-06 0.0005 1.46608e-07 
86 1 0.0191587 0.0149303 0.014838 0.000861499 0.00207785 0.0102594 1.96068e-06 1.1382e-07 2.11297e-06 0.0005 1.46608e-07 
87 1 0.0171224 0.0181618 0.0158694 0.00647731 0.0112317 0.00404609 -7.67969e-06 5.29841e-06 2.45687e-05 0.0005 1.46608e-07 
88 1 0.0223296 0.0150483 0.0161637 0.0026586 0.00326686 -1.95925e-05 -2.05521e-07 -2.36965e-07 1.56403e-07 0.0005 1.46608e-07 
89 1 0.0234249 0.02257 0.0142252 0.000483183 0.000530085 -0.000348157 -7.83851e-07 7.86623e-07 -1.80365e-06 0.0005 1.46608e-07 
90 1 0.014659 0.0150366 0.0148755 0.00418402 -0.00194909 -0.0028659 1.81429e-08 -2.16149e-08 1.50393e-08 0.0005 1.46608e-07 
91 1 0.0179953 0.021956 0.0148637 0.00418669 0.00257717 -0.00146588 4.08536e-07 -1.153e-06 6.10904e-07 0.0005 1.46608e-07 
92 1 0.0171829 0.0225758 0.0154192 -0.000304591 0.00159765 -6.92628e-05 -5.95952e-07 -1.19709e-06 1.631e-06 0.0005 1.46608e-07 
93 1 0.0170104 0.0228524 0.0163646 -0.00547258 0.0103294 -0.00315716 0 0 -1.43822e-06 0.0005 1.46608e-07 
95 1 0.0208733 0.0238317 0.0148303 3.45321e-05 8.22012e-06 0.000238395 -1.23518e-06 3.34485e-06 -2.54932e-06 0.0005 1.46608e-07 
96 1 0.0184359 0.0160193 0.0147542 0.00192738 0.013909 0.013188 1.49317e-07 3.04542e-07 3.41864e-07 0.0005 1.46608e-07 
97 1 0.0161167 0.0229935 0.0152523 -0.000188654 0.00202588 -0.00259926 -5.21067e-07 1.0222e-07 -4.0882e-07 0.0005 1.46608e-07 
98 1 0.0216577 0.0198656 0.0167162 -0.00796213 0.0142132 -0.00188808 2.80313e-07 6.5503e-07 -6.03163e-07 0.0005 1.46608e-07 
99 1 0.0176941 0.0239713 0.0163698 0.000281844 -0.000361993 -0.000645069 -2.5323e-07 5.18852e-07 1.73683e-07 0.0005 1.46608e-07 
100 1 0.0210837 0.0149963 0.0166298 0.0338229 -0.0176327 -0.012254 0 0 -1.43822e-06 0.0005 1.46608e-07 
101 1 0.017298 0.0207711 0.0156131 0.00402666 0.00427465 0.00219193 5.2152e-07 4.81365e-07 7.46394e-07 0.0005 1.46608e-07 
102 1 0.022961 0.0222643 0.0150522 0.000874628 0.000898108 -0.0010897 -3.08452e-06 2.83413e-06 -2.22036e-06 0.0005 1.46608e-07 
103 1 0.0141212 0.0226496 0.0153528 0.000416188 -0.000448918 -0.00280866 2.10772e-07 6.96544e-07 -8.75332e-07 0.0005 1.46608e-07 
104 1 0.0194512 0.0143749 0.0135205 -0.000429606 -0.00290764 -0.000337894 0 0 -1.43822e-06 0.0005 1.46608e-07 
105 1 0.0167523 0.0191966 0.0159465 0.00320864 0.00517775 0.000790902 -1.75987e-07 9.73571e-07 -6.65187e-08 0.0005 1.46608e-07 
106 1 0.0160957 0.0219561 0.0150345 0.0035897 0.00605468 -0.000215488 -1.25725e-06 4.29695e-06 -1.62979e-06 0.0005 1.46608e-07 
107 1 0.0199982 0.0240564 0.0160813 0.000888261 -0.0165133 -0.0386625 0 0 -1.43822e-06 0.0005 1.46608e-07 
108 1 0.0239459 0.0219899 0.0148474 0.00229138 0.00304847 0.00244359 -2.63091e-06 7.41685e-07 -5.2953e-06 0.0005 1.46608e-07 
109 1 0.0214945 0.0233181 0.0125696 0.00320052 0.00136209 -0.00595549 -9.29742e-08 1.13119e-07 -3.06373e-07 0.0005 1.46608e-07 
110 1 0.0168386 0.0223598 0.0145057 0.0040037 0.00137818 -0.0018267 -3.75579e-07 2.21375e-06 -9.25908e-07 0.0005 1.46608e-07 
111 1 0.0174165 0.0141056 0.0134024 0.00212494 -0.00383197 0.00551509 0 0 -1.43822e-06 0.0005 1.46608e-07 
112 1 0.0175117 0.0216708 0.0160368 0.000719683 0.0029771 0.0015864 2.48437e-06 1.87994e-06 9.0858e-07 0.0005 1.46608e-07 
113 1 0.0158972 0.0226472 0.0143402 0.00424844 0.001825 -0.0039269 -9.06612e-08 1.94685e-07 3.01397e-07 0.0005 1.46608e-07 
114 1 0.0183285 0.0237159 0.0156403 0.00108383 0.00150873 0.000455706 -2.74861e-06 -2.11969e-06 -1.92322e-06 0.0005 1.46608e-07 
115 1 0.0148279 0.0231649 0.0148678 0.00104122 -0.000337742 -0.00159613 1.81488e-07 -2.08124e-07 -7.99959e-07 0.0005 1.46608e-07 
116 1 0.018832 0.0140378 0.0144604 0.000704046 -0.000395718 1.87356e-05 -2.56283e-08 8.8565e-08 1.65934e-07 0.0005 1.46608e-07 
117 1 0.0191148 0.0230779 0.016233 0.00321736 -0.000287542 0.000387737 1.60807e-08 1.39181e-08 -1.07051e-06 0.0005 1.46608e-07 
118 1 0.0172242 0.0146383 0.0150695 -0.0574069 0.00511108 -0.0498968 0 0 -1.43822e-06 0.0005 1.46608e-07 
119 1 0.019011 0.0240713 0.0162804 0.000957459 -0.000261952 -0.000626154 -7.45687e-08 -3.14275e-07 -1.04178e-06 0.0005 1.46608e-07 
120 1 0.0216172 0.022994 0.0134498 0.00166492 0.00506588 -0.0102845 -7.69335e-08 1.45372e-07 -3.4911e-07 0.0005 1.46608e-07 
121 1 0.0211265 0.0147384 0.0145157 0.00176745 0.00412778 0.00110355 0 0 -1.43822e-06 0.0005 1.46608e-07 
122 1 0.0238976 0.0152747 0.0152713 0.00381603 0.000983546 0.00529724 1.67122e-08 -1.58457e-07 7.10927e-08 0.0005 1.46608e-07 
123 1 0.0190587 0.0212509 0.0162559 -0.000174685 0.0294788 -0.0142353 -2.53621e-08 6.23806e-08 -7.15205e-08 0.0005 1.46608e-07 
124 1 0.0225872 0.0145729 0.0142713 0.00114452 -0.000414454 0.00212838 1.15355e-06 -1.49153e-06 -9.54274e-07 0.0005 1.46608e-07 
125 1 0.0246636 0.0170082 0.0154487 0.00484979 0.0105003 0.0048541 -2.10916e-07 -1.03689e-07 -5.92025e-08 0.0005 1.46608e-07 
126 1 0.0159237 0.0209236 0.0164653 0.00364932 0.00225186 0.00257977 -6.89133e-08 1.03694e-06 -8.05132e-07 0.0005 1.46608e-07 
127 1 0.0292373 0.0176412 0.0289358 -0.0143774 -0.0297874 -0.00501789 0 0 -1.43822e-06 0.0005 1.46608e-07 
128 1 0.0232133 0.0213429 0.015317 0.00574241 0.000611183 -0.00132048 -9.46235e-07 3.83705e-06 -3.78749e-06 0.0005 1.46608e-07 
129 1 0.0170852 0.0216222 0.0151337 0.00367427 0.00349244 0.00144999 -1.96504e-06 9.92667e-07 -4.71648e-07 0.0005 1.46608e-07 
130 1 0.0185375 0.0143622 0.0154256 -0.00151345 0.00339078 -0.00912592 -2.98329e-07 -6.55426e-08 6.00278e-07 0.0005 1.46608e-07 
131 1 0.0180949 0.0158985 0.0175081 -0.00423034 -0.143772 0.133953 0 0 -1.43822e-06 0.0005 1.46608e-07 
132 1 0.0197872 0.0200852 0.0166486 2.54759e-09 0.0241864 -0.00513999 7.63723e-15 -3.73741e-09 -1.64571e-08 0.0005 1.46608e-07 
133 1 0.0246854 0.0160166 0.0157995 0.00492377 0.00570919 0.00500952 -1.187e-07 -7.45233e-07 8.38526e-07 0.0005 1.46608e-07 
134 1 0.0234387 0.0204588 0.0157238 0.0045767 0.00146082 -0.000701254 1.92657e-06 -6.16689e-07 -1.90385e-06 0.0005 1.46608e-07 
135 1 0.0241931 0.0211995 0.0154032 0.00539195 -0.000527861 -0.00272593 -6.41696e-07 6.63554e-06 -1.25262e-06 0.0005 1.46608e-07 
136 1 0.0183002 0.0219092 0.0167035 0.00430991 0.00742469 0.00273961 1.18458e-07 2.37744e-07 -1.15638e-06 0.0005 1.46608e-07 
137 1 0.0173854 0.016359 0.0150398 0.000586283 0.016658 0.0126665 -1.92722e-07 6.32311e-08 -1.46197e-08 0.0005 1.46608e-07 
138 1 0.0208856 0.0173833 0.0164936 -0.00202547 0.00875606 0.0041013 3.2686e-08 2.2611e-07 6.67433e-08 0.0005 1.46608e-07 
139 1 0.0181069 0.020968 0.0164266 0.00541386 0.00679029 0.002841 -7.8678e-07 2.25924e-06 -1.60008e-07 0.0005 1.46608e-07 
141 1 0.0244168 0.0202621 0.0157726 0.0043828 0.00310524 -0.00114284 1.55443e-06 -4.31972e-06 6.36381e-07 0.0005 1.46608e-07 
142 1 0.0246012 0.0192217 0.0159396 0.00456991 -0.000148719 0.000878291 -9.29814e-07 -1.64399e-06 -2.77216e-07 0.0005 1.46608e-07 
143 1 0.018501 0.0153585 0.0155018 -0.0019815 0.00262127 0.00371374 8.55569e-07 2.60712e-07 1.55978e-06 0.0005 1.46608e-07 
144 1 0.0207097 0.0228904 0.015125 0.00101166 -0.000133833 0.000212864 1.06259e-06 -2.31289e-06 1.11795e-06 0.0005 1.46608e-07 
145 1 0.0181172 0.0230653 0.0163763 0.00426919 0.000907937 -0.00132477 0 0 -1.43822e-06 0.0005 1.46608e-07 
146 1 0.0164749 0.0142746 0.0136954 0.00948201 -0.00227795 -0.00841803 1.58047e-08 -2.65684e-08 2.51993e-08 0.0005 1.46608e-07 
147 1 0.0224568 0.0204661 0.0167476 -0.00315304 0.00689988 -0.00199666 -2.65318e-07 -7.23453e-07 -2.49632e-07 0.0005 1.46608e-07 
148 1 0.0182024 0.0211493 0.0154167 0.0039492 0.00488024 0.0010611 2.32635e-07 -2.43048e-06 1.3825e-06 0.0005 1.46608e-07 
149 1 0.0235735 0.0156989 0.0144258 0.00148071 0.0104209 0.0111856 -2.4933e-07 6.53152e-09 2.6301e-08 0.0005 1.46608e-07 
150 1 0.0249389 0.0197123 0.0167428 0.00297859 -0.00157363 0.00332601 -1.4345e-06 -6.97267e-07 3.3737e-08 0.0005 1.46608e-07 
151 1 0.0235022 0.0228095 0.0193798 -0.0607009 -0.0654609 -0.0935747 0 0 -1.43822e-06 0.0005 1.46608e-07 
152 1 0.016672 0.0214482 0.0199276 0 -0 -0.03 0 0 0 0.0005 1.46608e-07 
153 1 0.0195972 0.0204017 0.0188177 0 -0 -0.03 0 0 0 0.0005 1.46608e-07 
154 1 0.0185279 0.0220241 0.0254428 0 -0 -0.03 0 0 0 0.0005 1.46608e-07 
155 1 0.0146959 0.021331 0.0162447 -0.0101837 0.0199407 -0.00984252 7.01007e-07 7.42102e-07 -3.6008e-07 0.0005 1.46608e-07 
156 1 0.0185297 0.0156953 0.0188054 0 -0 -0.03 0 0 0 0.0005 1.46608e-07 
157 1 0.0164626 0.0216614 0.0168731 0.00228234 0.00638075 -0.00516121 -1.34886e-07 -1.21496e-06 -5.15868e-07 0.0005 1.46608e-07 
158 1 0.0169975 0.0213865 0.0227687 0 -0 -0.03 0 0 0 0.0005 1.46608e-07 
159 1 0.0198378 0.0226428 0.0235278 0 -0 -0.03 0 0 0 0.0005 1.46608e-07 
160 1 0.016553 0.0210748 0.0176789 0.00795382 -0.0250709 -0.0267293 0 0 -1.43822e-06 0.0005 1.46608e-07 
161 1 0.0161789 0.0169139 0.0188125 0 -0 -0.03 0 0 0 0.0005 1.46608e-07 
162 1 0.0207072 0.0195551 0.0167405 -0.0115174 0.0203459 -0.0020455 6.74415e-07 4.49015e-07 -1.79111e-07 0.0005 1.46608e-07 
163 1 0.0173179 0.02018 0.016422 0.00675507 -0.00723051 -0.000527247 0 0 -1.43822e-06 0.0005 1.46608e-07 
164 1 0.0165621 0.0169232 0.0225239 0 -0 -0.03 0 0 0 0.0005 1.46608e-07 
165 1 0.018304 0.0167822 0.0204157 0 -0 -0.03 0 0 0 0.0005 1.46608e-07 
166 1 0.0219374 0.0168761 0.0174994 0 0 -0.138553 0 0 -1.43822e-06 0.0005 1.46608e-07 
167 1 0.0218135 0.0196237 0.0215197 0 -0 -0.03 0 0 0 0.0005 1.46608e-07 
168 1 0.0241955 0.0181749 0.0158655 6.3056e-11 0.0201261 0.00422394 9.60597e-16 2.96726e-09 -1.33709e-08 0.0005 1.46608e-07 
169 1 0.0180868 0.0219473 0.0265668 0 -0 -0.03 0 0 0 0.0005 1.46608e-07 
170 1 0.0149529 0.0181665 0.0192146 0 -0 -0.03 0 0 0 0.0005 1.46608e-07 
171 1 0.0154334 0.0179813 0.0208865 0 -0 -0.03 0 0 0 0.0005 1.46608e-07 
172 1 0.0156807 0.0186955 0.0244764 0 -0 -0.03 0 0 0 0.0005 1.46608e-07 
173 1 0.0169429 0.0160222 0.0158708 -0.0170709 -0.00641395 -0.00589927 -4.59755e-07 -1.00056e-07 2.00773e-07 0.0005 1.46608e-07 
174 1 0.0148221 0.0186274 0.0167371 -1.96962e-09 0.0246567 0.00187659 -1.29164e-14 1.18237e-09 -1.68234e-08 0.0005 1.46608e-07 
175 1 0.0155755 0.0217864 0.0160985 8.25643e-05 -0.000165538 -0.00173381 -3.36878e-06 -1.3985e-08 -1.4847e-06 0.0005 1.46608e-07 
176 1 0.0189893 0.023451 0.0275634 0 -0 -0.03 0 0 0 0.0005 1.46608e-07 
177 1 0.0165294 0.0201614 0.0158055 0.00415439 0.00358451 0.00264771 3.84054e-08 5.6068e-07 6.10322e-07 0.0005 1.46608e-07 
178 1 0.0212006 0.0153929 0.0273762 0 -0 -0.03 0 0 0 0.0005 1.46608e-07 
179 1 0.0195588 0.0145295 0.015662 0.00177356 -0.00285633 0.00813643 1.32379e-06 -1.96887e-06 1.56094e-06 0.0005 1.46608e-07 
180 1 0.0201012 0.0153649 0.0247963 0 -0 -0.03 0 0 0 0.0005 1.46608e-07 
181 1 0.0209741 0.0170833 0.0215582 0 -0 -0.03 0 0 0 0.0005 1.46608e-07 
182 1 0.0177812 0.0228084 0.0187826 0 -0 -0.03 0 0 0 0.0005 1.46608e-07 
183 1 0.0175972 0.0231613 0.0199305 0 -0 -0.03 0 0 0 0.0005 1.46608e-07 
184 1 0.0195545 0.0207922 0.0221417 0 -0 -0.03 0 0 0 0.0005 1.46608e-07 
185 1 0.0207412 0.0207356 0.0164852 1.93207e-08 0.023496 -0.00783594 8.12957e-12 -5.34582e-09 -1.6023e-08 0.0005 1.46608e-07 
186 1 0.0224662 0.0198197 0.0259394 0 -0 -0.03 0 0 0 0.0005 1.46608e-07 
187 1 0.019124 0.0195029 0.0186315 0 -0 -0.03 0 0 0 0.0005 1.46608e-07 
188 1 0.0237601 0.0200699 0.0167369 0.00253329 0.00535214 0.0026346 -4.87397e-06 -1.27309e-06 2.85391e-06 0.0005 1.46608e-07 
189 1 0.020999 0.0192753 0.0234542 0 -0 -0.03 0 0 0 0.0005 1.46608e-07 
190 1 0.0176669 0.0206937 0.025981 0 -0 -0.03 0 0 0 0.0005 1.46608e-07 
191 1 0.023624 0.0209952 0.0170908 -0.00365237 0.0056961 -0.0019591 1.32045e-06 -2.8791e-06 2.05032e-06 0.0005 1.46608e-07 
192 1 0.0187637 0.0166168 0.0262633 0 -0 -0.03 0 0 0 0.0005 1.46608e-07 
193 1 0.0170399 0.0157493 0.0187514 0 -0 -0.03 0 0 0 0.0005 1.46608e-07 
194 1 0.0206655 0.0185728 0.0208975 0 -0 -0.03 0 0 0 0.0005 1.46608e-07 
195 1 0.0209536 0.016184 0.0159051 -0.0114773 0.00838231 0.00336165 2.08024e-07 -2.37982e-07 -1.61649e-07 0.0005 1.46608e-07 
196 1 0.0194475 0.0157511 0.0153374 -0.00699695 0.00310519 -0.0233775 0 0 -1.43822e-06 0.0005 1.46608e-07 
197 1 0.0206558 0.0194365 0.0189421 0 -0 -0.03 0 0 0 0.0005 1.46608e-07 
198 1 0.023641 0.0195001 0.0159242 0.00692802 0.00721209 -0.000273644 5.4635e-06 4.59925e-06 -1.05636e-06 0.0005 1.46608e-07 
199 1 0.0194088 0.018073 0.0258568 0 -0 -0.03 0 0 0 0.0005 1.46608e-07 
200 1 0.022004 0.0203373 0.0251503 0 -0 -0.03 0 0 0 0.0005 1.46608e-07 
201 1 0.0202394 0.0164373 0.0167015 0.100485 -0.0025979 0.0796733 0 0 -1.43822e-06 0.0005 1.46608e-07 
202 1 0.0233019 0.0203004 0.0196562 0 -0 -0.03 0 0 0 0.0005 1.46608e-07 
203 1 0.020525 0.0147007 0.0158549 0.00362282 0.00101836 0.00124555 -2.39186e-07 -1.7457e-07 -1.32587e-06 0.0005 1.46608e-07 
204 1 0.0169775 0.018539 0.0220882 0 -0 -0.03 0 0 0 0.0005 1.46608e-07 
205 1 0.0156219 0.0145787 0.0142812 0.00476056 -0.0015997 -0.00353048 1.24231e-07 8.05796e-08 -8.67226e-08 0.0005 1.46608e-07 
206 1 0.0179451 0.0188277 0.0159436 0.00222864 0.0183729 0.000712489 -3.66235e-07 2.55155e-07 1.34896e-08 0.0005 1.46608e-07 
207 1 0.0210973 0.0176849 0.0243827 0 -0 -0.03 0 0 0 0.0005 1.46608e-07 
208 1 0.0225278 0.0163473 0.0160316 0.000707371 0.0121039 0.0068134 -7.6919e-08 -9.8242e-08 -6.78291e-08 0.0005 1.46608e-07 
209 1 0.0212466 0.0191129 0.0199248 0 -0 -0.03 0 0 0 0.0005 1.46608e-07 
210 1 0.0154005 0.0161382 0.015891 -0.000895084 0.00837082 0.0066941 5.09926e-08 -3.44582e-08 -1.2013e-08 0.0005 1.46608e-07 
211 1 0.0197633 0.0161608 0.0198955 0 -0 -0.03 0 0 0 0.0005 1.46608e-07 
212 1 0.0206325 0.0219985 0.0188537 0 -0 -0.03 0 0 0 0.0005 1.46608e-07 
213 1 0.0190152 0.0166627 0.0152546 0.00128876 0.0164484 0.0106991 7.69569e-07 1.12852e-07 7.57886e-09 0.0005 1.46608e-07 
214 1 0.0209616 0.015387 0.0152734 0.00107067 0.00487002 0.00284543 -7.9789e-08 -2.11891e-07 -6.05932e-07 0.0005 1.46608e-07 
215 1 0.0234308 0.0159944 0.0157851 -0.00619079 0.00792645 -0.0135611 -1.58444e-07 4.11111e-07 -5.71395e-07 0.0005 1.46608e-07 
216 1 0.0213649 0.0157703 0.0241431 0 -0 -0.03 0 0 0 0.0005 1.46608e-07 
217 1 0.0172001 0.0203088 0.0230848 0 -0 -0.03 0 0 0 0.0005 1.46608e-07 
218 1 0.0154267 0.0216624 0.0275638 0 -0 -0.03 0 0 0 0.0005 1.46608e-07 
219 1 0.0226886 0.0165359 0.0212284 0 -0 -0.03 0 0 0 0.0005 1.46608e-07 
220 1 0.021032 0.0224914 0.0259243 0 -0 -0.03 0 0 0 0.0005 1.46608e-07 
221 1 0.0196544 0.0191834 0.0203329 0 -0 -0.03 0 0 0 0.0005 1.46608e-07 
222 1 0.0180469 0.0169941 0.0154386 0.00228583 0.0180663 0.00871893 3.11684e-07 -1.03147e-07 -6.93774e-08 0.0005 1.46608e-07 
223 1 0.0216142 0.0189523 0.0272441 0 -0 -0.03 0 0 0 0.0005 1.46608e-07 
224 1 0.015156 0.0222978 0.0168486 0.0003029 -0.000180459 -0.000733955 2.37709e-07 -2.47205e-07 -9.31054e-07 0.0005 1.46608e-07 
225 1 0.0145652 0.0192693 0.0188692 0 -0 -0.03 0 0 0 0.0005 1.46608e-07 
226 1 0.0188383 0.0232335 0.0205672 0 -0 -0.03 0 0 0 0.0005 1.46608e-07 
