ITEM: TIMESTEP
21200000
ITEM: NUMBER OF ATOMS
109
ITEM: BOX BOUNDS ff ff ff
-0.02 0.43
-0.02 0.06
-0.02 0.07
ITEM: ATOMS id type x y z vx vy vz fx fy fz radius mass 
1 1 0.0187485 0.0234673 0.0117589 3.80488e-06 8.49685e-05 -0.00023298 -4.14477e-09 5.65464e-09 -6.44726e-09 0.0005 1.46608e-07 
2 1 0.0182172 0.023238 0.0106227 0.00239108 0.00174118 -0.00231537 9.70955e-09 1.33794e-07 2.87489e-07 0.0005 1.46608e-07 
4 1 0.0144998 0.0225496 0.014246 0.00157652 0.00116955 0.000256536 1.97662e-08 1.65904e-08 5.78053e-09 0.0005 1.46608e-07 
5 1 0.0552425 0.0189586 0.00589144 -9.84482e-15 -1.33743e-14 -1.90504e-13 3.97047e-23 -5.55865e-22 0 0.0005 1.46608e-07 
15 1 0.00938048 0.0183393 0.00587271 3.64669e-15 5.31046e-16 -3.6901e-14 -5.29396e-22 2.15398e-21 0 0.0005 1.46608e-07 
16 1 0.0260148 0.0196703 0.00594114 1.76444e-14 2.84217e-15 -2.87664e-13 -6.74979e-22 2.74955e-21 0 0.0005 1.46608e-07 
17 1 0.0403045 0.0164365 0.00808573 0.00116793 -0.0131502 0.0113065 -8.05709e-09 -1.30485e-08 2.27004e-08 0.0005 1.46608e-07 
18 1 0.0366849 0.0218066 0.0435188 -9.6879e-317 9.73506e-317 2.68131e-13 0 0 0 0.0005 1.46608e-07 
20 1 0.0458732 0.0153196 0.00974369 0.00043621 -0.00830432 0.0192455 -3.3678e-09 7.54899e-09 1.10594e-08 0.0005 1.46608e-07 
24 1 0.0384782 0.0168648 0.0152163 0.00152362 0.0135541 0.00753397 -8.57281e-09 3.92247e-08 1.74266e-09 0.0005 1.46608e-07 
25 1 0.0339249 0.0173116 0.00624552 -6.67558e-16 -9.36123e-15 -2.80895e-14 3.29158e-19 -4.3834e-20 2.32934e-21 0.0005 1.46608e-07 
27 1 0.000591717 0.0149731 0.0435188 9.71467e-317 9.75789e-317 -8.23806e-13 0 0 0 0.0005 1.46608e-07 
28 1 0.0428926 0.0229874 0.0132883 0.00062461 0.00725568 -0.0174954 -5.97129e-09 -2.58963e-09 -2.21802e-08 0.0005 1.46608e-07 
32 1 0.0213275 0.0147486 0.0119436 -0.00214402 0.00138597 0.0271379 1.28347e-08 -8.02872e-08 -4.31444e-09 0.0005 1.46608e-07 
33 1 0.0286644 0.0176311 0.00746338 0.000711943 -0.0211315 0.00655244 -1.38123e-08 -1.03345e-08 1.06659e-08 0.0005 1.46608e-07 
37 1 0.0418112 0.0224579 0.00886228 0.000813787 -0.00955452 -0.0150971 9.18775e-09 7.45778e-10 3.23708e-08 0.0005 1.46608e-07 
41 1 0.0239382 0.0227585 0.00931685 0.00452025 -0.00582704 -0.00517032 1.84435e-08 -1.03084e-07 -2.42869e-07 0.0005 1.46608e-07 
44 1 0.0329344 0.0153576 0.0137189 -8.04604e-05 0.0106965 0.0192698 2.21551e-09 1.239e-08 -2.85199e-09 0.0005 1.46608e-07 
47 1 0.0176679 0.0141076 0.0132336 0.000361462 -0.000393807 0.000900928 3.9007e-09 -4.85055e-08 1.39964e-07 0.0005 1.46608e-07 
49 1 0.003617 0.0285782 0.0435188 -9.68849e-317 -9.75601e-317 2.88878e-12 0 0 0 0.0005 1.46608e-07 
52 1 0.0816336 0.0207003 0.00622629 0.17088 -0.0770335 0.0122573 0 0 -1.43822e-06 0.0005 1.46608e-07 
57 1 0.0177449 0.0174882 0.00600758 2.62601e-15 1.02239e-14 2.12827e-14 6.88214e-22 9.52912e-22 -2.11758e-22 0.0005 1.46608e-07 
59 1 0.043631 0.0205586 0.0155178 0.00014985 0.0218895 -0.00681088 8.85158e-10 -3.07163e-09 -1.20718e-08 0.0005 1.46608e-07 
62 1 0.0231815 0.0200416 0.00741201 0.000459264 -0.0188582 -0.00815332 2.08591e-06 3.04928e-05 1.58093e-05 0.0005 1.46608e-07 
63 1 0.0196075 0.0139964 0.0129764 0.000580522 0.000893982 -0.00143487 -1.27451e-08 3.45166e-08 7.43616e-08 0.0005 1.46608e-07 
65 1 0.0426488 0.0232574 0.0124118 0.000835594 0.00447172 -0.0197745 -7.45849e-09 -2.85915e-09 -1.7998e-08 0.0005 1.46608e-07 
67 1 0.043074 0.0224271 0.0141736 0.000137131 0.0147508 -0.0166309 -3.43146e-09 -2.92131e-09 -1.25773e-08 0.0005 1.46608e-07 
68 1 0.0439795 0.018838 0.0158 0.00287858 0.0076585 0.00108978 3.10394e-09 -1.0934e-07 2.64077e-08 0.0005 1.46608e-07 
73 1 0.0349285 0.0181778 0.00592251 6.33259e-16 6.72283e-15 2.00025e-14 4.72486e-21 -3.70577e-22 0 0.0005 1.46608e-07 
74 1 0.0339777 0.0153316 0.00929607 0.000237786 -0.0114048 0.0175622 2.56462e-09 1.49853e-08 -3.0905e-09 0.0005 1.46608e-07 
76 1 0.0279512 0.0152912 0.00944469 0.000187451 -0.00951571 0.0182317 -9.92456e-10 5.65524e-09 1.09373e-08 0.0005 1.46608e-07 
79 1 0.054387 0.0178804 0.00601135 -1.29944e-14 -1.76761e-14 -2.51655e-13 7.01449e-21 -2.06464e-21 -2.11758e-22 0.0005 1.46608e-07 
84 1 0.0356084 0.0219666 0.0082958 0.00151848 -0.00296064 -0.00509219 -8.76294e-07 2.82698e-07 -2.59242e-08 0.0005 1.46608e-07 
87 1 0.0421022 0.0229809 0.00995234 0.00107515 -0.00929916 -0.0204411 6.93957e-09 -3.43141e-09 -5.23024e-08 0.0005 1.46608e-07 
88 1 0.0416321 0.0219172 0.00827838 0.000423094 -0.0154635 -0.0128721 1.09596e-09 -3.46514e-09 9.74789e-09 0.0005 1.46608e-07 
89 1 0.0445091 0.0168126 0.0151464 0.000245446 0.017859 0.0108489 -1.39927e-09 1.05761e-08 -5.41452e-09 0.0005 1.46608e-07 
90 1 0.0337792 0.0149982 0.010107 0.000980351 -0.00484208 0.0168395 1.37819e-08 2.29556e-08 -4.6748e-08 0.0005 1.46608e-07 
92 1 0.0413297 0.0206429 0.00745359 0.00107426 -0.0168812 -0.0075145 -7.83385e-08 -2.75182e-07 -8.11481e-08 0.0005 1.46608e-07 
97 1 0.0172193 0.0240356 0.0131618 -7.52627e-05 -0.000170219 -6.10643e-06 2.6033e-09 1.06902e-08 -4.77996e-09 0.0005 1.46608e-07 
103 1 0.0394745 0.0148062 0.0112352 0.000284984 -0.000925129 0.0207928 -1.60229e-09 1.02952e-08 6.80599e-09 0.0005 1.46608e-07 
106 1 0.019836 0.0143634 0.0138781 0.00201711 9.7212e-05 -0.00137154 -5.67728e-08 -6.05133e-08 1.54961e-07 0.0005 1.46608e-07 
108 1 0.0214483 0.0168437 0.00645098 -2.38866e-14 5.08805e-14 1.84334e-13 -2.38757e-20 -1.02703e-20 0 0.0005 1.46608e-07 
109 1 0.0296056 0.0217877 0.008145 8.02526e-05 -0.0167683 -0.0149462 -6.89061e-10 -1.08183e-08 5.33958e-09 0.0005 1.46608e-07 
112 1 0.036925 0.0229562 0.0134192 0.00127009 0.00757237 -0.0160731 -1.55034e-08 2.08263e-08 -1.01208e-07 0.0005 1.46608e-07 
121 1 0.0586827 0.0172628 0.00598816 1.03819e-14 -2.15375e-14 -2.65e-13 -1.11835e-21 -1.41613e-21 0 0.0005 1.46608e-07 
122 1 0.0792478 0.0194315 0.00576454 1.17808e-14 4.01835e-14 1.70237e-13 -1.56304e-20 2.1917e-20 -3.81165e-21 0.0005 1.46608e-07 
124 1 0.0209866 0.0145704 0.0139018 -0.00484773 0.00534383 0.0266995 -2.13293e-08 2.57122e-07 6.10597e-08 0.0005 1.46608e-07 
125 1 0.0460871 0.0158296 0.00872496 0.00328041 -0.0051848 0.00849714 -1.72143e-08 -5.75182e-08 3.88846e-08 0.0005 1.46608e-07 
128 1 0.0303903 0.00406748 0.0435188 -9.67556e-317 -9.75879e-317 -3.22607e-12 0 0 0 0.0005 1.46608e-07 
130 1 0.0316708 0.0202939 0.0155351 0.000602469 0.0171106 -0.00707371 -5.86647e-09 9.56529e-08 -5.83983e-08 0.0005 1.46608e-07 
131 1 0.0462438 0.0163034 0.00817228 0.00298772 -0.00186801 -0.000947485 4.09914e-10 2.83381e-08 3.82894e-08 0.0005 1.46608e-07 
133 1 0.0209354 0.0222214 0.014651 -0.0137667 0.00496358 0.00957439 0 0 -1.43822e-06 0.0005 1.46608e-07 
135 1 0.0447169 0.0158951 0.0144548 0.000393389 0.0139387 0.0143208 -2.78575e-09 1.42883e-08 -8.05216e-10 0.0005 1.46608e-07 
137 1 0.0465254 0.0191962 0.00590655 2.38225e-15 1.33751e-14 9.20543e-14 -8.09181e-20 2.01435e-20 -8.47033e-22 0.0005 1.46608e-07 
139 1 0.035232 0.0202763 0.00755332 0.000259753 -0.0201901 -0.00584164 -1.08398e-08 -4.24792e-08 9.17025e-09 0.0005 1.46608e-07 
141 1 0.0318797 0.0192744 0.0158374 0.00146214 0.0131737 0.00010998 1.12155e-09 -1.85389e-08 -1.56585e-08 0.0005 1.46608e-07 
142 1 0.0467775 0.0182382 0.00734309 -0.000687348 -0.02051 0.00384807 7.43268e-09 -2.81209e-09 1.81124e-08 0.0005 1.46608e-07 
143 1 0.0397491 0.0149617 0.0101988 0.00259374 -0.00438663 0.0132785 -5.05439e-09 5.29921e-09 -1.51902e-08 0.0005 1.46608e-07 
147 1 0.0361462 0.0230962 0.0100331 0.000326461 -0.00751123 -0.0180261 -1.96779e-09 -1.45718e-08 -8.47332e-09 0.0005 1.46608e-07 
149 1 0.0584376 0.0191695 0.00582359 8.11093e-15 -1.68668e-14 -2.07262e-13 -1.10068e-19 -1.6451e-20 -2.96462e-21 0.0005 1.46608e-07 
150 1 0.0220549 0.0155838 0.00893635 0.000368893 -0.0122331 0.0172479 -5.77059e-09 2.64291e-09 1.14187e-08 0.0005 1.46608e-07 
157 1 0.0186662 0.0141138 0.0132925 0.000456656 -0.00221227 -0.000787377 -9.6538e-08 3.06995e-08 2.38023e-08 0.0005 1.46608e-07 
158 1 0.020084 0.0201843 0.0061153 5.52746e-15 -2.51679e-15 5.04867e-14 4.44692e-20 5.21852e-20 -2.5411e-21 0.0005 1.46608e-07 
160 1 0.0433323 0.0216048 0.0149529 0.000504661 0.0158197 -0.0122706 -3.63897e-09 2.53714e-09 -1.47893e-08 0.0005 1.46608e-07 
161 1 0.0221348 0.00230077 0.0435188 9.74157e-317 -9.69799e-317 9.23294e-13 0 0 0 0.0005 1.46608e-07 
165 1 0.201805 0.0186174 0.00570934 -3.8561e-20 1.12962e-21 -1.30474e-21 0 0 0 0.0005 1.46608e-07 
166 1 0.0377979 0.0196743 0.0157455 0.00344052 0.000310614 0.00239626 -1.28509e-08 -3.754e-08 -2.33404e-08 0.0005 1.46608e-07 
167 1 0.0257323 0.0198556 0.0158036 0.00214696 0.00939777 -0.00260423 2.46546e-05 -6.13678e-05 -2.62291e-05 0.0005 1.46608e-07 
173 1 0.0830234 0.0186618 0.00583976 1.15075e-14 3.23738e-14 -1.39061e-13 -5.59703e-20 -1.05879e-22 -4.02341e-21 0.0005 1.46608e-07 
174 1 0.0250275 0.022245 0.0143326 0.000234862 0.0145186 -0.0158544 -1.95587e-09 -4.54881e-09 -1.0823e-08 0.0005 1.46608e-07 
179 1 0.067984 0.0193424 0.00575613 3.89839e-15 7.52828e-15 2.61625e-13 -1.17347e-19 3.764e-20 6.35275e-22 0.0005 1.46608e-07 
185 1 0.0410678 0.0196496 0.00724157 0.000492671 -0.020992 -0.00191311 -2.28837e-08 -1.05899e-07 -7.97017e-09 0.0005 1.46608e-07 
186 1 0.0391457 0.0149875 0.0129343 0.00140667 0.00423908 0.0168805 5.94163e-09 8.70169e-09 -1.04471e-08 0.0005 1.46608e-07 
187 1 0.0376843 0.020296 0.0156087 0.00252086 0.00270962 -0.000742341 -3.34882e-08 3.15009e-07 -4.30022e-08 0.0005 1.46608e-07 
191 1 0.0256227 0.0206212 0.0156489 0.00269541 0.00400433 -0.00387657 -3.48126e-05 8.24353e-05 1.46236e-05 0.0005 1.46608e-07 
193 1 0.0245181 0.0198668 0.00580713 6.22873e-16 4.5178e-16 5.46819e-16 0 8.67362e-19 0 0.0005 1.46608e-07 
194 1 0.0364925 0.0233935 0.0118014 0.000650934 0.00104644 -0.0195083 -4.22802e-09 -9.28706e-09 -1.70486e-08 0.0005 1.46608e-07 
197 1 0.0399823 0.0154266 0.0092279 1.71793e-05 -0.0123486 0.0182979 -8.68907e-10 7.22459e-09 9.82137e-09 0.0005 1.46608e-07 
200 1 0.027089 0.0151754 0.0131259 -0.000909988 0.00962197 0.0219287 -2.85126e-08 5.63376e-09 4.80903e-08 0.0005 1.46608e-07 
205 1 0.0383457 0.0197753 0.00590075 5.92039e-15 -2.8936e-14 1.43242e-13 -1.36551e-19 -8.89385e-21 2.96462e-21 0.0005 1.46608e-07 
215 1 0.026935 0.0188837 0.00598981 1.4303e-14 2.30443e-15 -2.33189e-13 -9.26442e-23 1.35161e-21 -2.11758e-22 0.0005 1.46608e-07 
225 1 0.0289987 0.019328 0.00720074 -0.00010249 -0.022492 -0.00270039 3.45527e-10 -5.90955e-09 9.5118e-09 0.0005 1.46608e-07 
226 1 0.0441596 0.018096 0.0156861 0.00239097 0.0107061 0.00286627 -3.59993e-09 -4.03698e-08 5.29704e-09 0.0005 1.46608e-07 
227 1 0.0321311 0.0182267 0.0157112 7.93523e-05 0.0212332 0.0048334 -1.54514e-09 6.72276e-09 -1.04248e-08 0.0005 1.46608e-07 
229 1 0.042459 0.0233876 0.0115798 0.00193256 0.00165307 -0.018697 -1.70319e-08 -1.7637e-09 -2.86735e-08 0.0005 1.46608e-07 
232 1 0.0221996 0.00109062 0.0435188 9.58743e-317 9.68145e-317 4.97437e-14 0 0 0 0.0005 1.46608e-07 
237 1 0.042302 0.0233348 0.0108095 0.000619725 -0.00442004 -0.018371 -1.05559e-08 -1.34678e-08 -2.31996e-08 0.0005 1.46608e-07 
241 1 0.0325779 0.0163531 0.014847 0.000164824 0.0166024 0.0141648 -1.32157e-09 1.03574e-08 -4.61935e-09 0.0005 1.46608e-07 
242 1 0.0314002 0.0213933 0.0150887 -5.23441e-05 0.019028 -0.0109291 1.51253e-09 -5.24736e-09 -9.41966e-09 0.0005 1.46608e-07 
247 1 0.0456365 0.0149798 0.0109249 -0.000208338 -0.00488078 0.0224718 -2.08675e-09 7.58912e-09 -2.59909e-09 0.0005 1.46608e-07 
252 1 0.0557897 0.0172859 0.0059806 9.82923e-15 1.33276e-14 1.8999e-13 4.46016e-21 -1.972e-21 0 0.0005 1.46608e-07 
253 1 0.0895649 0.0187731 0.00575225 -1.31129e-14 1.89767e-14 2.53774e-13 -1.91999e-19 -2.16576e-19 5.71747e-21 0.0005 1.46608e-07 
256 1 0.030231 0.0232816 0.0104233 0.000902961 -0.0046407 -0.0179921 -6.80214e-09 -1.85445e-08 -1.90943e-08 0.0005 1.46608e-07 
257 1 0.0299305 0.0227742 0.00919939 0.00137742 -0.00959424 -0.0143077 -6.4374e-09 -2.75747e-08 -1.29668e-08 0.0005 1.46608e-07 
258 1 0.0408435 0.018629 0.00720665 0.000923689 -0.0174107 0.00211621 -5.88836e-09 -1.0388e-08 1.12056e-08 0.0005 1.46608e-07 
260 1 0.108836 0.0200055 0.00584234 7.53419e-16 -1.26046e-15 -6.97814e-15 5.55865e-22 2.59404e-21 -2.11758e-22 0.0005 1.46608e-07 
268 1 0.0221489 0.0149155 0.0131336 0.00567357 0.00196797 0.0030858 -8.83291e-08 -2.93448e-08 -4.89803e-08 0.0005 1.46608e-07 
269 1 0.0335442 0.0148348 0.0109954 0.000176985 -0.00301977 0.0210251 5.78597e-10 1.19764e-08 3.90201e-10 0.0005 1.46608e-07 
270 1 0.0307857 0.023139 0.0129199 4.73774e-05 0.00920213 -0.0205464 1.09827e-10 -9.92441e-09 -6.24647e-09 0.0005 1.46608e-07 
271 1 0.035444 0.0212001 0.0078531 0.000809833 -0.0147524 -0.00723006 -1.50959e-07 1.94485e-07 -1.46032e-07 0.0005 1.46608e-07 
274 1 0.0212128 0.0146293 0.0129296 -0.000917116 0.00614616 0.0277141 3.60231e-09 -4.88446e-08 3.01373e-08 0.0005 1.46608e-07 
275 1 0.031115 0.0222835 0.0143352 0.000710959 0.0118404 -0.0146762 -2.90841e-09 1.00506e-09 -1.71173e-08 0.0005 1.46608e-07 
277 1 0.0266493 0.0160447 0.0145755 0.00116478 0.0119847 0.0111696 -2.71024e-09 1.0612e-08 -1.32103e-09 0.0005 1.46608e-07 
284 1 0.00937694 0.00505359 0.0435188 -9.68799e-317 -9.69932e-317 9.23294e-13 0 0 0 0.0005 1.46608e-07 
288 1 0.0377754 0.021451 0.00628508 -6.87925e-15 2.32699e-14 -1.07319e-13 -5.83791e-20 2.43522e-21 4.44692e-21 0.0005 1.46608e-07 
291 1 0.0282743 0.016297 0.00819269 0.000234321 -0.0164694 0.0135632 -1.44484e-09 8.25762e-10 1.35411e-08 0.0005 1.46608e-07 
294 1 0.0238204 0.0199216 0.00640396 -2.06827e-16 -2.85435e-16 8.49145e-16 -1.0842e-19 -2.1684e-19 0 0.0005 1.46608e-07 
299 1 0.0254808 0.018723 0.00589902 -2.07798e-14 -3.30309e-15 3.38792e-13 5.06896e-21 2.91101e-20 6.35275e-22 0.0005 1.46608e-07 
300 1 0.0381428 0.0183143 0.0156416 -0.050453 0.0206081 0.217175 0.0804396 0.0254518 -0.199609 0.0005 1.46608e-07 
