# vtk DataFile Version 3.0
LIGGGHTS particles timestep 320000
ASCII
DATASET POLYDATA
POINTS 107 float
0.0215798 0.0156026 0.0143011
0.0189197 0.0234781 0.0140861
0.0187153 0.023793 0.0123564
0.0197793 0.0167166 0.0155022
0.0198079 0.0238087 0.0138233
0.0204171 0.0240862 0.0129977
0.0148111 0.0141342 0.0160741
0.0221289 0.0151065 0.0149813
0.0207894 0.01469 0.0143907
0.0246549 0.0214242 0.015361
0.0193425 0.0203835 0.015739
0.0168109 0.0257376 0.0282553
0.0174097 0.0240623 0.0131819
0.0203403 0.0206617 0.0166987
0.0190506 0.014708 0.0160476
0.0248729 0.0207472 0.0160496
0.0205867 0.0156429 0.0146497
0.0181638 0.0230525 0.0136345
0.0165882 0.0238328 0.0137032
0.0201728 0.0226933 0.01543
0.0228268 0.0206874 0.0190681
0.0214651 0.0147485 0.0126175
0.0209704 0.0104506 0.0260831
0.0194907 0.0238664 0.0148059
0.0176336 0.0178509 0.0170093
0.0257059 0.02078 0.0168276
0.0188412 0.0211234 0.0164742
0.0237201 0.0227225 0.0156341
0.0232242 0.0197261 0.016712
0.0186227 0.0224013 0.0156729
0.0187511 0.0211284 0.0154294
0.0174947 0.0151724 0.015474
0.0158142 0.0235344 0.0142612
0.019127 0.019417 0.0159276
0.0206408 0.0242934 0.0139386
0.0219948 0.0145904 0.013615
0.0213977 0.0213177 0.0162591
0.0228176 0.0227813 0.0152065
0.0163569 0.0230435 0.0149425
0.0210609 0.0192578 0.0159396
0.0179599 0.0233211 0.0127134
0.0176811 0.0231888 0.016984
0.0211422 0.0151083 0.013549
0.020204 0.0223351 0.0144952
0.0255228 0.0199922 0.0159637
0.0218987 0.0229206 0.0157475
0.0178886 0.0242728 0.0140383
0.0157431 0.0148185 0.0139635
0.0205428 0.0146566 0.0122428
0.0168368 0.0141987 0.0135547
0.0183788 0.0224607 0.0144165
0.0199698 0.0188258 0.0159538
0.0181025 0.0142234 0.0144722
0.0174247 0.0148269 0.0174952
0.0190644 0.0219225 0.014912
0.0234925 0.0223443 0.0184773
0.0201903 0.0152509 0.0138198
0.0149946 0.0231891 0.0147208
0.0147573 0.0240469 0.0200701
0.0224507 0.0207371 0.0164632
0.0193538 0.0228675 0.0147695
0.018855 0.0142921 0.0137967
0.0173069 0.0235123 0.0143388
0.0250153 0.0190242 0.0171233
0.0253734 0.0181335 0.015856
0.0182083 0.0140356 0.0130788
0.0220102 0.0232071 0.0147903
0.0204749 0.0159108 0.0162737
0.0171506 0.0145613 0.0144477
0.0235593 0.0209358 0.0165887
0.0221201 0.0237305 0.0139017
0.0210973 0.022898 0.0150729
0.0229165 0.0234338 0.0144344
0.0230409 0.0157169 0.0155684
0.0260583 0.0196166 0.0171718
0.0177628 0.023476 0.0117762
0.0234642 0.0150189 0.0148484
0.0176187 0.0165581 0.0165572
0.0215376 0.0197789 0.0167232
0.0194488 0.0240923 0.0129203
0.0203058 0.0233186 0.0146288
0.020508 0.0200931 0.0158904
0.0257151 0.0189923 0.0159455
0.0196504 0.0221711 0.0163246
0.0259616 0.0186657 0.0168807
0.0198648 0.0196617 0.0166978
0.0199873 0.0216284 0.015175
0.0189977 0.0232036 0.0131108
0.0204519 0.0140896 0.0130609
0.0238566 0.0161099 0.0159921
0.0193986 0.0139811 0.0130065
0.0250805 0.021725 0.0164006
0.0213299 0.0239696 0.0133295
0.0212157 0.016613 0.0152353
0.0211763 0.0140299 0.0137471
0.0194666 0.0173528 0.0164751
0.0192903 0.0232842 0.0157958
0.021216 0.0235265 0.0142744
0.0240067 0.0183723 0.0168526
0.0209142 0.0228308 0.0160883
0.0184914 0.0242032 0.0132441
0.0227016 0.0226582 0.0163808
0.0196216 0.022846 0.0138009
0.011502 0.0177163 0.00831134
0.0216038 0.0154644 0.0157685
0.0206932 0.0209934 0.0154962
0.0227142 0.0146143 0.0143246

VERTICES 107 214
1 0
1 1
1 2
1 3
1 4
1 5
1 6
1 7
1 8
1 9
1 10
1 11
1 12
1 13
1 14
1 15
1 16
1 17
1 18
1 19
1 20
1 21
1 22
1 23
1 24
1 25
1 26
1 27
1 28
1 29
1 30
1 31
1 32
1 33
1 34
1 35
1 36
1 37
1 38
1 39
1 40
1 41
1 42
1 43
1 44
1 45
1 46
1 47
1 48
1 49
1 50
1 51
1 52
1 53
1 54
1 55
1 56
1 57
1 58
1 59
1 60
1 61
1 62
1 63
1 64
1 65
1 66
1 67
1 68
1 69
1 70
1 71
1 72
1 73
1 74
1 75
1 76
1 77
1 78
1 79
1 80
1 81
1 82
1 83
1 84
1 85
1 86
1 87
1 88
1 89
1 90
1 91
1 92
1 93
1 94
1 95
1 96
1 97
1 98
1 99
1 100
1 101
1 102
1 103
1 104
1 105
1 106

POINT_DATA 107
SCALARS id int 1
LOOKUP_TABLE default
1
2
3
5
6
7
9
10
12
13
14
17
18
21
23
24
25
26
29
35
36
38
39
40
42
44
45
48
49
52
53
54
57
60
62
63
64
65
66
67
68
69
70
74
75
76
79
80
81
82
84
85
86
87
88
89
90
91
92
95
96
97
98
100
103
104
105
106
108
110
111
112
114
115
119
125
126
128
131
133
135
136
137
143
144
148
149
152
154
158
159
161
165
167
168
171
172
175
176
177
178
182
184
185
186
187
190

SCALARS type int 1
LOOKUP_TABLE default
1
1
1
1
1
1
1
1
1
1
1
1
1
1
1
1
1
1
1
1
1
1
1
1
1
1
1
1
1
1
1
1
1
1
1
1
1
1
1
1
1
1
1
1
1
1
1
1
1
1
1
1
1
1
1
1
1
1
1
1
1
1
1
1
1
1
1
1
1
1
1
1
1
1
1
1
1
1
1
1
1
1
1
1
1
1
1
1
1
1
1
1
1
1
1
1
1
1
1
1
1
1
1
1
1
1
1

SCALARS radius float 1
LOOKUP_TABLE default
0.0005
0.0005
0.0005
0.0005
0.0005
0.0005
0.0005
0.0005
0.0005
0.0005
0.0005
0.0005
0.0005
0.0005
0.0005
0.0005
0.0005
0.0005
0.0005
0.0005
0.0005
0.0005
0.0005
0.0005
0.0005
0.0005
0.0005
0.0005
0.0005
0.0005
0.0005
0.0005
0.0005
0.0005
0.0005
0.0005
0.0005
0.0005
0.0005
0.0005
0.0005
0.0005
0.0005
0.0005
0.0005
0.0005
0.0005
0.0005
0.0005
0.0005
0.0005
0.0005
0.0005
0.0005
0.0005
0.0005
0.0005
0.0005
0.0005
0.0005
0.0005
0.0005
0.0005
0.0005
0.0005
0.0005
0.0005
0.0005
0.0005
0.0005
0.0005
0.0005
0.0005
0.0005
0.0005
0.0005
0.0005
0.0005
0.0005
0.0005
0.0005
0.0005
0.0005
0.0005
0.0005
0.0005
0.0005
0.0005
0.0005
0.0005
0.0005
0.0005
0.0005
0.0005
0.0005
0.0005
0.0005
0.0005
0.0005
0.0005
0.0005
0.0005
0.0005
0.0005
0.0005
0.0005
0.0005

SCALARS mass float 1
LOOKUP_TABLE default
5.23599e-07
5.23599e-07
5.23599e-07
5.23599e-07
5.23599e-07
5.23599e-07
5.23599e-07
5.23599e-07
5.23599e-07
5.23599e-07
5.23599e-07
5.23599e-07
5.23599e-07
5.23599e-07
5.23599e-07
5.23599e-07
5.23599e-07
5.23599e-07
5.23599e-07
5.23599e-07
5.23599e-07
5.23599e-07
5.23599e-07
5.23599e-07
5.23599e-07
5.23599e-07
5.23599e-07
5.23599e-07
5.23599e-07
5.23599e-07
5.23599e-07
5.23599e-07
5.23599e-07
5.23599e-07
5.23599e-07
5.23599e-07
5.23599e-07
5.23599e-07
5.23599e-07
5.23599e-07
5.23599e-07
5.23599e-07
5.23599e-07
5.23599e-07
5.23599e-07
5.23599e-07
5.23599e-07
5.23599e-07
5.23599e-07
5.23599e-07
5.23599e-07
5.23599e-07
5.23599e-07
5.23599e-07
5.23599e-07
5.23599e-07
5.23599e-07
5.23599e-07
5.23599e-07
5.23599e-07
5.23599e-07
5.23599e-07
5.23599e-07
5.23599e-07
5.23599e-07
5.23599e-07
5.23599e-07
5.23599e-07
5.23599e-07
5.23599e-07
5.23599e-07
5.23599e-07
5.23599e-07
5.23599e-07
5.23599e-07
5.23599e-07
5.23599e-07
5.23599e-07
5.23599e-07
5.23599e-07
5.23599e-07
5.23599e-07
5.23599e-07
5.23599e-07
5.23599e-07
5.23599e-07
5.23599e-07
5.23599e-07
5.23599e-07
5.23599e-07
5.23599e-07
5.23599e-07
5.23599e-07
5.23599e-07
5.23599e-07
5.23599e-07
5.23599e-07
5.23599e-07
5.23599e-07
5.23599e-07
5.23599e-07
5.23599e-07
5.23599e-07
5.23599e-07
5.23599e-07
5.23599e-07
5.23599e-07

VECTORS velocity float
-0.00128838 0.00369742 0.000982203
0.000184679 -0.0013001 0.0297698
-0.00196969 0.00684397 -0.0218599
0.0148367 -0.04785 0.0637133
-0.00678065 0.0127935 -0.00671177
0.0164053 -3.68958e-05 0.0157422
7.66358e-21 -1.17022e-19 2.0377e-20
-0.0317519 -0.00757133 -0.000940082
0.0134262 0.00347274 0.00356538
0.29664 -0.0669179 0.240426
0.0222431 0.00403994 -0.000907569
0.224063 0.115574 0.0292205
0.000599852 -0.000829185 -0.00280851
0.0196363 0.0282461 -0.0381944
0.0382431 -0.0497135 -0.0939143
0.169336 -0.706403 1.00106
0.0318685 0.0109755 0.00659773
0.0194914 -0.0103389 0.00898005
-0.00212425 -0.00427276 -0.00897947
0.000847779 0.00363347 0.00682212
-0.125751 -0.00657736 0.119918
0.00986014 0.00108725 0.0106164
-0.0422644 -0.206483 -0.0515831
0.0241466 -0.0084036 0.0196315
0.0337274 -0.0171468 -0.175473
-0.00761021 0.00883832 0.0400966
-0.000344923 0.0140082 -0.0588246
0.0417241 -0.00579845 -0.00710017
-0.0155414 0.00831398 0.00634955
-0.0664138 0.0414837 -0.056757
0.0139197 -0.00687769 -0.002751
-0.0307943 0.0233144 -0.117441
-0.000208679 -0.00401459 -0.00622625
0.00430861 0.0164258 -0.00101992
0.0106237 0.00635473 -0.0115341
0.00224171 0.00147582 2.53705e-05
-0.000900882 0.0758066 -0.0653883
0.0278539 -0.00933325 0.0106912
0.0201816 0.00628156 -0.0140069
0.0225245 -0.0208341 0.00350551
0.0153326 -0.00254751 -0.000663418
0.0881298 -0.0445825 -0.148027
0.00249565 0.00283786 0.00515986
0.0163209 0.00401681 -0.00638789
0.0733896 0.0213438 0.0407679
0.016741 -0.0225529 0.0191395
-0.000996993 0.00879809 0.00335286
-0.0619306 0.00268775 -0.109148
0.0108085 0.00457152 0.00617867
0.00241553 -0.00759735 0.024419
0.0110203 0.00488933 0.00685648
0.00831933 -0.00484981 -0.0169653
-0.0348079 -0.0130389 -0.0566898
-0.088167 0.00755855 -0.207075
0.00638299 -0.00971021 0.00853268
-0.128363 0.269818 0.124324
0.00775035 0.0123467 0.0172048
0.00569662 0.00192978 -0.00543894
0.0523723 -0.135876 -0.315364
3.61696e-06 0.0564815 -0.0191167
-0.0038029 0.00502814 0.0348501
0.0103133 0.000918514 -0.00198869
0.013746 0.0147373 -0.0143022
0.0631994 -0.185817 0.383406
-0.0276272 0.0593443 0.00109906
0.000120796 -0.00219228 0.00643607
0.0157272 -0.00769038 0.0161367
0.0736858 -0.0498137 0.0227155
0.000306185 -0.0168947 0.0224793
0.00275145 0.0466486 -0.0101057
0.0247405 -0.00553314 0.0103212
0.0109378 -0.0118106 0.0145611
0.0173021 -0.0120559 0.0148875
-0.0405707 -0.00665182 -0.0210631
-0.0663065 0.0162949 -0.032756
0.0123038 0.00276244 0.00681838
-0.00334546 -0.00238534 0.00291639
-0.049285 -0.0387419 0.115437
0.00632037 0.0607199 0.00755379
-0.0306968 -0.0120758 0.000739642
0.03287 -0.00751292 0.0249753
0.0116685 -0.0224808 -0.012412
-0.00026365 0.0502446 0.00588854
-0.02872 0.0485624 0.0289483
0.0234575 -0.0603455 -0.0451599
-0.00406105 0.0246623 0.00305489
0.00859614 -0.00368052 0.00716042
0.0223161 -0.00158645 -0.0117311
0.00214864 0.000321427 0.00125284
0.00656687 -0.0397786 -0.00694431
0.00163959 -0.000674256 0.00327938
0.0256153 0.0078003 0.0571351
0.0030947 0.0107962 -0.00945368
-0.0267976 -0.0126088 -0.00297012
0.00140056 0.00185501 0.000352998
0.0487417 0.0679635 0.0523635
-0.00122439 0.0114197 -0.0282865
0.0288017 -0.00523109 0.0109033
-0.233887 -0.19739 0.0799501
0.0122325 0.0188495 0.00120316
0.022173 -0.00317813 0.00692782
0.0866503 -0.0551694 -0.086599
-0.00148137 0.0127609 -0.00938958
-0.00706987 0.00057347 0.00253193
-0.072689 -0.0345291 0.0189774
0.0121442 -0.0152842 0.0048075
0.0025094 0.00529545 -0.00753588

VECTORS force float
0.0 0.0 -5.1365e-06
0.000344666 0.000359093 0.000873022
0.00219291 0.00364171 0.00450142
0.0 0.0 -5.1365e-06
-0.00144833 0.0015884 0.0020657
-0.0030493 0.00256178 0.0020534
0.0 0.0 0.0
0.0 0.0 -5.1365e-06
7.19273e-07 3.86229e-07 1.23017e-05
-0.0102709 -0.00658385 -0.0030091
0.0 0.0 -5.1365e-06
0.0 0.0 -5.1365e-06
3.1476e-07 -5.68427e-07 4.19317e-06
0.0 0.0 -5.1365e-06
0.0 0.0 -5.1365e-06
-0.000180144 0.000672313 -0.000447117
3.43844e-06 8.1254e-07 2.10104e-06
-0.00436675 -0.00305737 -0.0005365
-1.55067e-06 -2.00699e-06 4.16744e-06
0.0 0.0 -5.1365e-06
0.0 0.0 -5.1365e-06
3.39721e-06 1.22516e-06 -5.77308e-08
0.0 0.0 -5.1365e-06
-7.31875e-05 -3.77379e-05 -0.000232157
0.0 0.0 -5.1365e-06
0.0 0.0 -5.1365e-06
0.0 0.0 -5.1365e-06
0.0 0.0 -5.1365e-06
5.55516e-06 3.90616e-05 5.03985e-05
0.0 0.0 -5.1365e-06
-6.91067e-06 -0.000127185 5.72866e-05
0.0 0.0 -5.1365e-06
-5.35982e-06 -3.00066e-06 7.27058e-07
-3.80177e-07 3.52669e-06 6.49181e-07
0.00259542 0.00496391 0.000317769
-1.4404e-06 -3.42253e-07 6.24236e-07
0.0 0.0 -5.1365e-06
0.0 0.0 -5.1365e-06
-3.77287e-07 -5.7814e-07 -5.19934e-07
-6.25794e-07 2.3442e-06 -1.15205e-06
-0.00512457 -0.0147051 0.000250593
0.0 0.0 -5.1365e-06
-1.76634e-07 9.18154e-07 -1.51207e-07
-2.81665e-05 3.62124e-05 4.22919e-05
0.000266016 -0.000511154 0.000269693
0.0 0.0 -5.1365e-06
-4.60493e-06 -5.74582e-06 5.6727e-06
0.0 0.0 -5.1365e-06
-1.08462e-06 -6.45393e-06 5.8718e-06
0.0 0.0 -5.1365e-06
5.92403e-05 3.08209e-05 -4.13945e-05
0.0 0.0 -5.1365e-06
0.0 0.0 -5.1365e-06
0.0 0.0 -5.1365e-06
4.49346e-05 4.35539e-05 -6.68406e-05
0.0 0.0 -5.1365e-06
4.60047e-06 1.4444e-06 3.54171e-06
2.99778e-07 8.58498e-07 -4.15315e-07
0.0 0.0 -5.1365e-06
-4.56151e-09 -1.16467e-07 -3.31297e-07
2.94955e-05 0.000132041 -2.96874e-05
4.35093e-06 -5.20445e-08 2.19582e-06
0.0 0.0 -5.1365e-06
0.0 0.0 -5.1365e-06
-0.00572062 -0.00172033 0.000162783
-1.10233e-06 -8.95201e-08 -7.71113e-07
3.33937e-05 -1.49478e-06 -4.04524e-06
0.0 0.0 -5.1365e-06
0.0 0.0 -5.1365e-06
0.0 0.0 -5.1365e-06
-6.57275e-05 2.53509e-05 -4.34297e-05
0.0 0.0 -5.1365e-06
-1.18175e-06 -3.83387e-06 -8.19754e-07
1.56746e-05 5.75943e-06 1.49335e-05
-0.000191962 -0.000172104 0.000123115
0.00486097 0.00819908 0.00112563
-2.86512e-08 -1.31945e-06 -1.85197e-06
0.0 0.0 -5.1365e-06
0.0 0.0 -5.1365e-06
-0.000452586 -0.000444179 0.00151265
-4.39822e-05 3.68904e-05 -1.83533e-05
0.0 0.0 -5.1365e-06
-0.000117991 -0.00137505 0.00128052
0.0 0.0 -5.1365e-06
-1.43861e-05 3.86478e-05 3.07786e-05
0.0 0.0 -5.1365e-06
0.0 0.0 -5.1365e-06
0.00041008 0.00029965 0.000211692
-1.58884e-06 3.47843e-06 1.13102e-05
-1.56746e-05 -5.75943e-06 -2.52065e-05
-4.52457e-07 -2.37045e-05 1.51162e-05
0.0 0.0 -5.1365e-06
-0.00462505 -0.00748337 -0.00114011
0.0 0.0 -5.1365e-06
-5.94657e-06 5.31438e-07 2.96292e-06
0.0 0.0 -5.1365e-06
0.0 0.0 -5.1365e-06
-5.93161e-06 5.43183e-07 5.17228e-05
0.0 0.0 -5.1365e-06
0.0 0.0 -5.1365e-06
-1.18874e-06 -8.49049e-06 -6.20301e-06
0.0 0.0 -5.1365e-06
-0.00109546 -0.000622334 6.57319e-06
0.0 0.0 -5.1365e-06
0.0 0.0 -5.1365e-06
0.0 0.0 -5.1365e-06
-3.33163e-06 2.22029e-06 -1.46464e-06
