# vtk DataFile Version 3.0
LIGGGHTS particles timestep 20000
ASCII
DATASET POLYDATA
POINTS 190 float
0.0155155 0.0152168 0.0137512
0.0169024 0.0218632 0.0159478
0.0141557 0.0224064 0.0144131
0.0185647 0.0137078 0.0137361
0.0214456 0.0215739 0.0161033
0.016873 0.0141924 0.0135185
0.0185826 0.0218499 0.0151817
0.020193 0.0152449 0.0138081
0.0214045 0.0147358 0.0125656
0.0217156 0.0148797 0.0147903
0.0226507 0.0235649 0.0142299
0.0153858 0.0228042 0.0151909
0.0216348 0.0199708 0.0166757
0.0155641 0.0234221 0.0144107
0.0199752 0.0158374 0.0145897
0.0176126 0.0242578 0.0135898
0.0178108 0.0140904 0.0131873
0.0224329 0.0228705 0.0151189
0.0191848 0.013982 0.0130003
0.0241251 0.0224954 0.0155268
0.0214341 0.014319 0.0134687
0.0160397 0.014411 0.0140266
0.0193137 0.0223856 0.0144141
0.0222726 0.0145293 0.0140378
0.0197597 0.0165996 0.0152221
0.0205972 0.0146307 0.0119893
0.0146897 0.0210589 0.0155529
0.0199326 0.0141359 0.013649
0.016693 0.0238661 0.0136102
0.0195608 0.0217404 0.0151783
0.0211015 0.0137541 0.0142177
0.0205777 0.0141916 0.0128872
0.0204204 0.0220246 0.0147935
0.0230795 0.014789 0.0145683
0.0217455 0.0233996 0.0146216
0.0183451 0.0225273 0.0143117
0.0216825 0.0223774 0.0155584
0.0190966 0.020926 0.0155326
0.0196631 0.0177915 0.0157908
0.0208524 0.0166307 0.0152396
0.0156278 0.0161109 0.0148342
0.0159604 0.0160948 0.0163045
0.019208 0.0153255 0.0152769
0.0146502 0.0154253 0.0142071
0.0183401 0.0149577 0.0148361
0.0140399 0.0216804 0.0150905
0.0190594 0.0143587 0.0143127
0.0168203 0.019546 0.0170918
0.0229185 0.016003 0.0159031
0.0200315 0.0168102 0.016161
0.022234 0.0155197 0.0153573
0.0200512 0.01678 0.0171819
0.0143946 0.0160868 0.0149193
0.0198613 0.0148329 0.0146762
0.0245415 0.0198002 0.0168341
0.0160505 0.021354 0.0162323
0.0207611 0.0146897 0.0153566
0.0209814 0.0156927 0.014446
0.0210132 0.0208338 0.0166223
0.02083 0.014708 0.0143598
0.0209008 0.019542 0.0159682
0.0165441 0.0205677 0.0166073
0.0170366 0.0165336 0.0161075
0.0159613 0.0151842 0.0146566
0.0159935 0.0222077 0.0157142
0.0176124 0.0201939 0.0166495
0.0179183 0.0143726 0.0141403
0.0231297 0.0196885 0.0169044
0.021608 0.0152429 0.013809
0.0169824 0.0146476 0.0144026
0.0188924 0.0216604 0.0161796
0.0202217 0.0151005 0.0161031
0.0172446 0.0183747 0.0167329
0.0199159 0.0207846 0.0166309
0.0250208 0.0209451 0.0159415
0.0188424 0.0144146 0.0155123
0.0231026 0.0212394 0.0162863
0.017283 0.0148251 0.0153408
0.0198375 0.0202888 0.015766
0.0205825 0.0156768 0.0153683
0.0133077 0.0210983 0.0154436
0.01472 0.0221914 0.0156157
0.0182682 0.0209292 0.0164697
0.0179041 0.0156199 0.0155136
0.0239312 0.016452 0.0161257
0.0201876 0.0213445 0.0158483
0.0236726 0.0214238 0.0170934
0.0191904 0.0198053 0.016355
0.0207959 0.0205694 0.0156829
0.0197451 0.0234912 0.012094
0.0180989 0.0231696 0.013272
0.0204308 0.0237643 0.0149992
0.0211759 0.023512 0.0158355
0.0218327 0.0238143 0.0137106
0.0197698 0.0237374 0.0142828
0.0210097 0.0240118 0.01317
0.0178743 0.0238924 0.0126279
0.0185784 0.0242049 0.0141264
0.0175314 0.0235454 0.0142861
0.0186657 0.0239878 0.0131467
0.0177582 0.0234687 0.0117658
0.0221032 0.0231717 0.016014
0.0200403 0.0229238 0.0147638
0.0233444 0.0232804 0.0151136
0.0189211 0.0235414 0.0147935
0.0189798 0.0229967 0.0137016
0.0195381 0.0237977 0.0155402
0.0195967 0.0239618 0.0133544
0.0187635 0.0234864 0.0118373
0.0209148 0.0235937 0.0140983
0.0209947 0.0229063 0.0150592
0.0203579 0.0243684 0.0137917
0.0199696 0.0229953 0.0135584
0.0185456 0.0237709 0.0157126
0.0171333 0.0236009 0.0152916
0.0176537 0.0236007 0.0161455
0.0202473 0.0230942 0.0157262
0.023215 0.0226819 0.0159039
0.0207075 0.0222032 0.0157415
0.0195852 0.0233605 0.0164414
0.0183828 0.0225972 0.0158158
0.0172313 0.022617 0.0153776
0.0225308 0.0219532 0.0158753
0.0165618 0.0233845 0.014477
0.0237476 0.0177127 0.0166667
0.0189959 0.0223574 0.0168893
0.0180368 0.023153 0.0150577
0.0144161 0.0230406 0.0151399
0.0203534 0.0227553 0.0166615
0.019731 0.0222114 0.0160795
0.0220512 0.0208419 0.0164149
0.0206368 0.0217886 0.0166627
0.0187581 0.0241999 0.0166315
0.0185837 0.0232171 0.0165747
0.0228195 0.0206284 0.0170376
0.0178884 0.0217687 0.0160824
0.0213274 0.0227012 0.0164355
0.018996 0.0212251 0.0170915
0.0192692 0.0228034 0.015402
0.0230647 0.0223373 0.0169664
0.0203353 0.0239906 0.0161599
0.0167391 0.023065 0.016386
0.0162701 0.0231459 0.0155071
0.0228912 0.0185898 0.0178974
0.0216797 0.0177039 0.0175495
0.0205852 0.0186398 0.016288
0.0207668 0.0174981 0.0157309
0.0148427 0.0175164 0.0181504
0.0196167 0.0158754 0.0164907
0.0186547 0.0163214 0.0162241
0.0200572 0.0153213 0.0175818
0.0164672 0.0161975 0.017429
0.0216125 0.0191008 0.0173982
0.0159407 0.017941 0.0192343
0.0139606 0.0205022 0.0160087
0.0209878 0.016055 0.0162012
0.0191199 0.0173522 0.0165609
0.0203693 0.0147539 0.0236081
0.0169775 0.018539 0.0254123
0.0181284 0.0154797 0.0268448
0.0210973 0.0176849 0.0275044
0.0212466 0.0191129 0.0269629
0.0154542 0.0163496 0.0244236
0.017319 0.0170935 0.0246786
0.0162844 0.0168814 0.0248796
0.0213649 0.0157703 0.0230833
0.0226886 0.0165359 0.0243602
0.0196544 0.0191834 0.0277695
0.0196542 0.0182676 0.0233901
0.0171541 0.0151369 0.0226561
0.0229379 0.0181772 0.0240286
0.0157168 0.0192946 0.0270443
0.0173648 0.0186375 0.0281514
0.0202012 0.0234655 0.0179407
0.0151718 0.0213306 0.0173342
0.0195812 0.0214917 0.0178842
0.0176708 0.0226611 0.0165323
0.0146376 0.0217319 0.0164997
0.0228592 0.0207093 0.0184663
0.0179319 0.0222086 0.0181728
0.0180868 0.0219473 0.0218242
0.0175972 0.0231613 0.0288508
0.0229259 0.0208201 0.0249729
0.0166492 0.0208378 0.022931
0.0206325 0.0219985 0.020667
0.0154267 0.0216624 0.0265492
0.0155545 0.0220406 0.0241638
0.0169423 0.0218894 0.0283053
0.0193669 0.0231578 0.0249002
0.0200309 0.0219762 0.0245178

VERTICES 190 380
1 0
1 1
1 2
1 3
1 4
1 5
1 6
1 7
1 8
1 9
1 10
1 11
1 12
1 13
1 14
1 15
1 16
1 17
1 18
1 19
1 20
1 21
1 22
1 23
1 24
1 25
1 26
1 27
1 28
1 29
1 30
1 31
1 32
1 33
1 34
1 35
1 36
1 37
1 38
1 39
1 40
1 41
1 42
1 43
1 44
1 45
1 46
1 47
1 48
1 49
1 50
1 51
1 52
1 53
1 54
1 55
1 56
1 57
1 58
1 59
1 60
1 61
1 62
1 63
1 64
1 65
1 66
1 67
1 68
1 69
1 70
1 71
1 72
1 73
1 74
1 75
1 76
1 77
1 78
1 79
1 80
1 81
1 82
1 83
1 84
1 85
1 86
1 87
1 88
1 89
1 90
1 91
1 92
1 93
1 94
1 95
1 96
1 97
1 98
1 99
1 100
1 101
1 102
1 103
1 104
1 105
1 106
1 107
1 108
1 109
1 110
1 111
1 112
1 113
1 114
1 115
1 116
1 117
1 118
1 119
1 120
1 121
1 122
1 123
1 124
1 125
1 126
1 127
1 128
1 129
1 130
1 131
1 132
1 133
1 134
1 135
1 136
1 137
1 138
1 139
1 140
1 141
1 142
1 143
1 144
1 145
1 146
1 147
1 148
1 149
1 150
1 151
1 152
1 153
1 154
1 155
1 156
1 157
1 158
1 159
1 160
1 161
1 162
1 163
1 164
1 165
1 166
1 167
1 168
1 169
1 170
1 171
1 172
1 173
1 174
1 175
1 176
1 177
1 178
1 179
1 180
1 181
1 182
1 183
1 184
1 185
1 186
1 187
1 188
1 189

POINT_DATA 190
SCALARS id int 1
LOOKUP_TABLE default
1
2
3
4
5
6
7
8
9
10
11
12
13
14
15
16
17
18
19
20
21
22
23
24
25
26
27
28
29
30
31
32
33
34
35
36
37
38
39
40
41
42
43
44
45
46
47
48
49
50
51
52
53
54
55
56
57
58
59
60
61
62
63
64
65
66
67
68
69
70
71
72
73
74
75
76
77
78
79
80
81
82
83
84
85
86
87
88
89
90
91
92
93
94
95
96
97
98
99
100
101
102
103
104
105
106
107
108
109
110
111
112
113
114
115
116
117
118
119
120
121
122
123
124
125
126
127
128
129
130
131
132
133
134
135
136
137
138
139
140
141
142
143
144
145
146
147
148
149
150
151
152
153
154
155
156
157
158
159
160
161
162
163
164
165
166
167
168
169
170
171
172
173
174
175
176
177
178
179
180
181
182
183
184
185
186
187
188
189
190

SCALARS type int 1
LOOKUP_TABLE default
1
1
1
1
1
1
1
1
1
1
1
1
1
1
1
1
1
1
1
1
1
1
1
1
1
1
1
1
1
1
1
1
1
1
1
1
1
1
1
1
1
1
1
1
1
1
1
1
1
1
1
1
1
1
1
1
1
1
1
1
1
1
1
1
1
1
1
1
1
1
1
1
1
1
1
1
1
1
1
1
1
1
1
1
1
1
1
1
1
1
1
1
1
1
1
1
1
1
1
1
1
1
1
1
1
1
1
1
1
1
1
1
1
1
1
1
1
1
1
1
1
1
1
1
1
1
1
1
1
1
1
1
1
1
1
1
1
1
1
1
1
1
1
1
1
1
1
1
1
1
1
1
1
1
1
1
1
1
1
1
1
1
1
1
1
1
1
1
1
1
1
1
1
1
1
1
1
1
1
1
1
1
1
1
1
1
1
1
1
1

SCALARS radius float 1
LOOKUP_TABLE default
0.0005
0.0005
0.0005
0.0005
0.0005
0.0005
0.0005
0.0005
0.0005
0.0005
0.0005
0.0005
0.0005
0.0005
0.0005
0.0005
0.0005
0.0005
0.0005
0.0005
0.0005
0.0005
0.0005
0.0005
0.0005
0.0005
0.0005
0.0005
0.0005
0.0005
0.0005
0.0005
0.0005
0.0005
0.0005
0.0005
0.0005
0.0005
0.0005
0.0005
0.0005
0.0005
0.0005
0.0005
0.0005
0.0005
0.0005
0.0005
0.0005
0.0005
0.0005
0.0005
0.0005
0.0005
0.0005
0.0005
0.0005
0.0005
0.0005
0.0005
0.0005
0.0005
0.0005
0.0005
0.0005
0.0005
0.0005
0.0005
0.0005
0.0005
0.0005
0.0005
0.0005
0.0005
0.0005
0.0005
0.0005
0.0005
0.0005
0.0005
0.0005
0.0005
0.0005
0.0005
0.0005
0.0005
0.0005
0.0005
0.0005
0.0005
0.0005
0.0005
0.0005
0.0005
0.0005
0.0005
0.0005
0.0005
0.0005
0.0005
0.0005
0.0005
0.0005
0.0005
0.0005
0.0005
0.0005
0.0005
0.0005
0.0005
0.0005
0.0005
0.0005
0.0005
0.0005
0.0005
0.0005
0.0005
0.0005
0.0005
0.0005
0.0005
0.0005
0.0005
0.0005
0.0005
0.0005
0.0005
0.0005
0.0005
0.0005
0.0005
0.0005
0.0005
0.0005
0.0005
0.0005
0.0005
0.0005
0.0005
0.0005
0.0005
0.0005
0.0005
0.0005
0.0005
0.0005
0.0005
0.0005
0.0005
0.0005
0.0005
0.0005
0.0005
0.0005
0.0005
0.0005
0.0005
0.0005
0.0005
0.0005
0.0005
0.0005
0.0005
0.0005
0.0005
0.0005
0.0005
0.0005
0.0005
0.0005
0.0005
0.0005
0.0005
0.0005
0.0005
0.0005
0.0005
0.0005
0.0005
0.0005
0.0005
0.0005
0.0005
0.0005
0.0005
0.0005
0.0005
0.0005
0.0005

SCALARS mass float 1
LOOKUP_TABLE default
5.23599e-07
5.23599e-07
5.23599e-07
5.23599e-07
5.23599e-07
5.23599e-07
5.23599e-07
5.23599e-07
5.23599e-07
5.23599e-07
5.23599e-07
5.23599e-07
5.23599e-07
5.23599e-07
5.23599e-07
5.23599e-07
5.23599e-07
5.23599e-07
5.23599e-07
5.23599e-07
5.23599e-07
5.23599e-07
5.23599e-07
5.23599e-07
5.23599e-07
5.23599e-07
5.23599e-07
5.23599e-07
5.23599e-07
5.23599e-07
5.23599e-07
5.23599e-07
5.23599e-07
5.23599e-07
5.23599e-07
5.23599e-07
5.23599e-07
5.23599e-07
5.23599e-07
5.23599e-07
5.23599e-07
5.23599e-07
5.23599e-07
5.23599e-07
5.23599e-07
5.23599e-07
5.23599e-07
5.23599e-07
5.23599e-07
5.23599e-07
5.23599e-07
5.23599e-07
5.23599e-07
5.23599e-07
5.23599e-07
5.23599e-07
5.23599e-07
5.23599e-07
5.23599e-07
5.23599e-07
5.23599e-07
5.23599e-07
5.23599e-07
5.23599e-07
5.23599e-07
5.23599e-07
5.23599e-07
5.23599e-07
5.23599e-07
5.23599e-07
5.23599e-07
5.23599e-07
5.23599e-07
5.23599e-07
5.23599e-07
5.23599e-07
5.23599e-07
5.23599e-07
5.23599e-07
5.23599e-07
5.23599e-07
5.23599e-07
5.23599e-07
5.23599e-07
5.23599e-07
5.23599e-07
5.23599e-07
5.23599e-07
5.23599e-07
5.23599e-07
5.23599e-07
5.23599e-07
5.23599e-07
5.23599e-07
5.23599e-07
5.23599e-07
5.23599e-07
5.23599e-07
5.23599e-07
5.23599e-07
5.23599e-07
5.23599e-07
5.23599e-07
5.23599e-07
5.23599e-07
5.23599e-07
5.23599e-07
5.23599e-07
5.23599e-07
5.23599e-07
5.23599e-07
5.23599e-07
5.23599e-07
5.23599e-07
5.23599e-07
5.23599e-07
5.23599e-07
5.23599e-07
5.23599e-07
5.23599e-07
5.23599e-07
5.23599e-07
5.23599e-07
5.23599e-07
5.23599e-07
5.23599e-07
5.23599e-07
5.23599e-07
5.23599e-07
5.23599e-07
5.23599e-07
5.23599e-07
5.23599e-07
5.23599e-07
5.23599e-07
5.23599e-07
5.23599e-07
5.23599e-07
5.23599e-07
5.23599e-07
5.23599e-07
5.23599e-07
5.23599e-07
5.23599e-07
5.23599e-07
5.23599e-07
5.23599e-07
5.23599e-07
5.23599e-07
5.23599e-07
5.23599e-07
5.23599e-07
5.23599e-07
5.23599e-07
5.23599e-07
5.23599e-07
5.23599e-07
5.23599e-07
5.23599e-07
5.23599e-07
5.23599e-07
5.23599e-07
5.23599e-07
5.23599e-07
5.23599e-07
5.23599e-07
5.23599e-07
5.23599e-07
5.23599e-07
5.23599e-07
5.23599e-07
5.23599e-07
5.23599e-07
5.23599e-07
5.23599e-07
5.23599e-07
5.23599e-07
5.23599e-07
5.23599e-07
5.23599e-07
5.23599e-07
5.23599e-07
5.23599e-07
5.23599e-07
5.23599e-07
5.23599e-07
5.23599e-07
5.23599e-07
5.23599e-07
5.23599e-07

VECTORS velocity float
0.00230437 -0.000431786 -0.00512289
0.0139547 0.00107291 0.00903189
0.00155331 0.000443811 0.00197214
5.18077e-05 0.00541387 -0.0163789
0.010024 -0.0175107 0.00666362
0.00290391 -0.000114648 -0.00223361
0.00450879 0.0191847 -0.0339807
0.00509058 0.0208944 0.0319269
0.0102433 0.00139223 0.00961191
0.0155574 0.00298354 0.00438203
0.0050305 -0.00423132 -0.00326553
0.00517375 -0.00800286 0.00353836
0.00390197 -0.00369565 -0.00103203
0.00345995 0.000556031 -0.00335143
0.00486886 0.0208083 0.0182
0.00224671 0.000887088 -0.000181116
0.00075773 -0.000611197 7.6662e-05
0.000708985 -0.00934844 0.00459177
0.00620041 0.00362752 -0.00716643
-0.00889943 0.00212832 -0.0105717
0.00731041 0.000420502 0.00762953
0.00183974 0.000334299 -0.0026011
-0.0151473 0.00824745 0.00604013
0.00387731 0.0038113 -0.00304819
0.00527526 0.023332 0.0145433
0.0107793 0.00161204 0.00798924
0.018203 0.0231171 0.00493732
0.00317651 -0.00558896 0.00121786
0.00252034 0.00158944 0.00169913
0.00323 -0.0123632 -0.0110423
0.00164887 0.000109131 0.00201493
0.0084464 -0.0014011 0.00621353
0.00501525 0.00925231 -0.00847313
0.0007258 -0.00318538 0.00906811
0.00751236 0.00301831 0.00353782
0.00547367 0.0454398 -0.0358851
0.0110016 -0.0164683 0.0119946
-0.0140318 0.0223753 -0.00855226
0.0177094 0.0159907 0.0125911
0.0294395 -0.00796967 -0.00508314
0.00214079 0.00336378 0.00653676
0.0430163 0.0694769 -0.0582937
-0.0105204 -0.00590385 -0.0105479
-0.000273121 0.00771863 -0.0121098
-0.00641581 -0.00369447 0.000361324
-0.000413184 -1.07296e-05 0.00495815
0.00241699 0.0179288 -0.0301775
0.00917646 0.0614516 0.0122284
0.0460669 0.0108804 -0.0383122
0.0355182 0.025428 0.00937582
0.0189116 -0.000582899 0.00483809
0.0272773 0.00171456 -0.00638228
0.0215483 -0.0174647 0.00623362
0.00153287 0.0124285 -0.0204232
0.0463344 -0.0733999 -0.0097709
-0.00874295 -0.00172654 -0.00454255
0.00583775 0.00458186 0.0068571
0.0017049 0.010513 -0.00575788
-0.00471677 -0.0218793 0.0012756
0.0139801 0.00538395 0.00881244
0.0139882 0.00440191 -0.0492629
0.00765779 0.00777582 0.00130049
0.0067044 -0.000302282 0.000700357
0.00267765 0.0100337 -0.0136494
0.00888968 -0.00747162 0.00818818
-0.0210172 0.0195728 -0.00598237
0.00185888 0.00669392 -0.00140519
0.0166564 -0.00605032 -0.0646029
0.00642263 0.00516426 7.05154e-05
0.00317796 0.00359846 -0.00252294
-0.0116272 0.0188915 -0.00305325
-0.0189248 0.00169139 -0.00579912
-0.00142154 0.0427107 0.00897425
-0.00165187 0.00682674 0.00772144
-0.0545472 -0.0716612 -0.112339
0.00381108 -0.00418768 -0.00413279
0.0370243 0.0150691 0.00211798
0.00686379 0.0124179 -0.00248792
0.000959789 0.0363768 -0.0111103
0.0210777 -0.00719546 0.00702443
-0.00228559 -0.00477248 0.00271439
0.00134955 -0.00243773 0.00384557
0.00696227 0.00754934 0.0130441
-0.00135361 0.00488026 0.0146348
0.0306485 -0.0124399 0.0337201
-0.000808887 -0.00282164 0.011658
0.0737249 0.0159408 -0.0349166
-0.0136309 0.0448535 -0.016437
0.0107557 0.012265 -0.00337794
0.0531927 0.0152715 -0.0964258
0.0390744 0.0200178 -0.0325108
-0.0129212 0.00468129 0.00403533
-0.0026373 -0.00527594 0.00373069
0.00226867 -0.000759873 0.000620828
0.00287853 0.0358396 0.0365852
0.00762162 0.0103588 0.0109256
0.181775 0.0124132 0.0797302
-0.0200066 -0.000762848 0.00952154
0.00404952 0.00170782 -0.000715996
-0.000114489 0.00938739 0.0167681
-0.00584368 0.0040958 0.00184604
0.00048428 -0.000915185 0.00161573
-0.0147247 -0.000356465 0.0227417
-0.000997101 -0.000316921 0.00416934
0.00888495 -0.0140972 -0.00933044
0.0376456 0.0315039 -0.00796569
0.0180207 -0.00514936 -0.00990049
0.00642659 -0.0027919 0.0357118
0.0182725 -0.000616905 -0.00362766
0.0333163 0.00867368 0.0063959
0.0264556 -0.00819179 0.0151133
0.0134153 0.0172509 0.0263657
0.0665171 0.051225 -0.0330892
0.00416714 -0.00897643 -0.0206567
0.000657014 0.00357098 -0.00180589
0.0076017 0.0047644 -0.00218784
0.0189313 -0.00409591 0.00662199
0.00934683 0.00522082 0.0126021
0.0065039 -0.0107514 0.00875044
0.0121522 -0.0053221 0.00148573
-0.011144 0.0163167 -0.0136671
0.00291179 0.00872059 -0.00253535
0.0231056 -0.0139993 0.00623019
0.00262654 0.000184099 0.000450684
-0.0187363 0.0358999 0.0728217
0.00954153 0.00948456 0.00469275
-0.0110282 -0.00273729 -0.0316838
0.00253626 -0.000877991 0.00208949
0.00968938 0.00631986 0.0182076
0.0107057 0.000669287 0.00270048
0.0240072 -0.0106541 -0.00257937
0.00589768 0.00532265 0.000470037
0.000800293 0.000186449 -0.000864513
-0.00105941 -0.00424772 -0.00460221
0.0387982 0.0028427 -0.0213357
0.0174579 0.00647939 0.00280281
0.00183013 0.000541762 0.00218509
-0.0148504 0.036572 0.0229676
0.00747662 -0.0128528 -0.0132713
-0.0836867 -0.169326 -0.00655859
0.00313822 -0.000350711 -0.00714866
-0.000379423 0.00720423 0.00143636
0.00181515 -0.00430708 0.000178352
-0.00493122 0.0435439 0.0839531
0.0 0.0 -0.165286
0.0950561 0.0375628 -0.0546528
0.00261047 0.0304444 -0.0594748
0.0 0.0 -0.124574
0.00289578 -0.0156152 -0.062071
-0.0423165 0.00130668 -0.0567139
0.0 0.0 -0.163324
0.0 0.0 -0.172251
-0.0172576 0.0633329 0.0226433
0.0 -0.0 -0.1
-0.0136547 0.057722 -0.000160683
0.0465681 0.0121107 -0.00841607
0.0677745 -0.015074 -0.145383
0.0 -0.0 -0.1
0.0 -0.0 -0.1
0.0 -0.0 -0.1
0.0 -0.0 -0.1
0.0 -0.0 -0.1
0.0 -0.0 -0.1
0.0 -0.0 -0.1
0.0 -0.0 -0.1
0.0 -0.0 -0.1
0.0 -0.0 -0.1
0.0 -0.0 -0.1
0.0 -0.0 -0.1
0.0 -0.0 -0.1
0.0 -0.0 -0.1
0.0 -0.0 -0.1
0.0 -0.0 -0.1
0.0 0.0 -0.140172
-0.00498544 0.0985228 0.0650614
-0.0167783 0.0416778 0.0722043
2.7591e-05 0.00308048 -0.0121157
-0.0155869 -0.0180935 -0.00635558
0.0 -0.0 -0.1
0.0 0.0 -0.122808
0.0 -0.0 -0.1
0.0 -0.0 -0.1
0.0 -0.0 -0.1
0.0 -0.0 -0.1
0.0 -0.0 -0.1
0.0 -0.0 -0.1
0.0 -0.0 -0.1
0.0 -0.0 -0.1
0.0 -0.0 -0.1
0.0 -0.0 -0.1

VECTORS force float
-9.90461e-08 -1.21198e-06 -3.0229e-06
4.61528e-06 4.6325e-06 -1.04716e-05
4.9736e-06 2.89254e-06 -5.81565e-06
1.75802e-07 6.01913e-07 -4.48209e-06
2.10769e-05 -5.19433e-05 2.66723e-05
-1.02067e-05 -1.49368e-06 -3.66123e-07
9.27592e-05 8.18729e-05 -0.000149186
-1.2483e-06 6.88074e-06 -1.32555e-05
2.86479e-07 -4.79178e-07 -2.24762e-06
6.74146e-06 1.3963e-07 6.11462e-06
-3.72359e-06 1.10556e-05 -1.12262e-06
-1.25548e-05 6.65529e-06 8.89766e-06
0.0 0.0 -5.1365e-06
-4.9414e-08 1.95016e-06 -4.83575e-06
0.0 0.0 -5.1365e-06
-9.51614e-06 -3.90877e-06 7.04284e-06
8.77811e-06 1.48902e-06 5.0072e-06
-1.6293e-05 6.62549e-06 7.78771e-06
-4.10726e-06 -2.27109e-05 2.03446e-05
0.0 0.0 -5.1365e-06
1.77147e-06 -6.98777e-07 -2.4202e-06
1.23819e-06 2.66027e-06 -1.54113e-06
-0.000219638 -0.000122271 -7.76035e-05
6.2155e-06 1.9965e-06 5.21807e-06
-1.41927e-08 -3.8162e-07 5.58361e-07
-1.9683e-07 -5.09404e-07 -2.4265e-06
0.0 0.0 -5.1365e-06
-2.08345e-06 -1.14493e-06 2.64178e-06
2.11125e-06 4.55244e-06 1.57968e-06
8.40271e-05 0.000217008 0.000136178
3.70357e-06 -1.88121e-06 3.07566e-07
-2.35706e-06 -1.77802e-06 3.3409e-06
-3.31292e-05 0.000176034 -0.000159901
-1.88402e-06 -9.75455e-06 1.84738e-05
5.53695e-05 1.13791e-05 -6.26663e-06
-0.000229358 -3.81232e-05 0.000225934
-2.58758e-05 5.44416e-05 -3.97693e-05
4.89156e-06 4.16308e-06 -1.81065e-06
0.0 0.0 -5.1365e-06
3.58098e-06 1.10971e-05 -1.06701e-05
0.0 0.0 -5.1365e-06
0.0 0.0 -5.1365e-06
0.0 0.0 -5.1365e-06
0.0 0.0 -5.1365e-06
0.0 0.0 -5.1365e-06
-1.05143e-05 -3.80429e-06 -1.70898e-06
0.0 0.0 -5.1365e-06
0.0 0.0 -5.1365e-06
0.0 0.0 -5.1365e-06
-7.64331e-09 1.7708e-07 -5.70985e-06
1.65515e-06 1.03781e-06 -2.91525e-06
0.0 0.0 -5.1365e-06
0.0 0.0 -5.1365e-06
0.0 0.0 -5.1365e-06
0.0 0.0 -5.1365e-06
0.0 0.0 -5.1365e-06
-2.48345e-06 2.73686e-06 7.45772e-06
2.23103e-07 -1.19371e-06 -4.64281e-06
4.16618e-06 1.32085e-05 6.0947e-06
-1.0641e-05 2.28493e-05 -2.54219e-06
0.0 0.0 -5.1365e-06
0.0 0.0 -5.1365e-06
0.0 0.0 -5.1365e-06
0.0 0.0 -5.1365e-06
-5.74924e-06 -7.01472e-06 1.44615e-06
0.0 0.0 -5.1365e-06
1.28226e-06 -2.28293e-06 7.09578e-06
3.05161e-05 -0.000116957 5.16557e-05
2.61972e-06 3.93379e-06 -4.83703e-08
0.0 0.0 -5.1365e-06
-2.12751e-06 5.17671e-06 -8.92939e-07
0.0 0.0 -5.1365e-06
0.0 0.0 -5.1365e-06
-1.72123e-06 -7.8807e-06 -2.16249e-06
0.0 0.0 -5.1365e-06
0.0 0.0 -5.1365e-06
-1.6961e-05 4.01649e-05 3.84452e-05
0.0 0.0 -5.1365e-06
3.09529e-06 1.44509e-05 -9.0767e-06
-3.58098e-06 -1.10971e-05 3.97101e-07
2.83426e-05 -5.058e-06 -6.1494e-06
1.4367e-06 -1.1012e-05 -3.53377e-08
2.28647e-05 -1.51701e-05 4.67527e-06
0.0 0.0 -5.1365e-06
0.0 0.0 -5.1365e-06
-2.786e-05 2.76786e-05 -6.97407e-06
0.0 0.0 -5.1365e-06
-2.86777e-06 -1.15609e-05 1.9383e-06
4.33075e-05 -5.17861e-05 1.91208e-05
-7.35049e-05 -6.51391e-06 5.43429e-05
0.00110969 -0.000415411 0.000502993
-8.01559e-05 6.66721e-05 0.000116499
0.0 0.0 -5.1365e-06
0.0 0.0 -5.1365e-06
0.00012023 -0.000597369 -0.000211314
-0.000494059 0.000132055 -0.000451845
0.00461187 0.00824996 -0.00626884
0.0 0.0 -5.1365e-06
-4.54266e-06 -3.96236e-06 9.71802e-06
0.00705023 0.00559974 -0.00687092
-0.000622721 0.0094356 -0.0130507
0.0 0.0 -5.1365e-06
-0.000189118 9.08197e-05 -0.000115412
-5.09104e-05 -1.18754e-05 -1.40555e-05
0.0 0.0 -5.1365e-06
4.38533e-05 0.000153515 0.00016018
0.0 0.0 -5.1365e-06
-0.00139131 0.00137028 -0.000667478
0.0 0.0 -5.1365e-06
0.0 0.0 -5.1365e-06
-5.76095e-05 2.64565e-07 -1.30739e-06
-0.000489445 0.000147028 -0.000904116
0.0 0.0 -5.1365e-06
1.40585e-08 -1.26044e-06 -3.63602e-06
5.33813e-06 1.73463e-05 -3.21554e-05
0.0 0.0 -5.1365e-06
6.78146e-05 4.3279e-05 5.29831e-05
-4.92161e-06 -4.83159e-06 -3.2316e-06
0.0 0.0 -5.1365e-06
0.0 0.0 -5.1365e-06
3.88877e-06 4.46501e-06 -3.93314e-06
1.21283e-05 1.77461e-05 -2.03497e-07
-3.83225e-06 9.15553e-07 -5.45182e-06
0.0 0.0 -5.1365e-06
0.0 0.0 -5.1365e-06
0.0 0.0 -5.1365e-06
0.0 0.0 -5.1365e-06
6.91733e-07 1.05997e-05 6.89644e-06
0.0 0.0 -5.1365e-06
0.0 0.0 -5.1365e-06
5.46115e-07 -5.41094e-06 -1.94429e-06
0.0 0.0 -5.1365e-06
-8.37369e-07 -4.70113e-06 -5.33285e-06
-2.83978e-07 -2.66952e-06 -4.7692e-06
-3.05161e-05 0.000116957 -6.19287e-05
-9.24467e-06 5.05701e-06 -8.24887e-06
0.0 0.0 -5.1365e-06
0.0 0.0 -5.1365e-06
-3.88877e-06 -4.46501e-06 -6.33987e-06
0.0 0.0 -5.1365e-06
1.17838e-06 1.13104e-05 1.43301e-05
1.71945e-05 -4.47704e-06 2.36624e-05
-1.68473e-05 5.14834e-06 -3.01099e-05
0.0 0.0 -5.1365e-06
0.0 0.0 -5.1365e-06
0.0 0.0 -5.1365e-06
0.0 0.0 -5.1365e-06
0.0 0.0 -5.1365e-06
0.0 0.0 -5.1365e-06
0.0 0.0 -5.1365e-06
0.0 0.0 -5.1365e-06
0.0 0.0 -5.1365e-06
0.0 0.0 -5.1365e-06
0.0 0.0 0.0
0.0 0.0 -5.1365e-06
0.0 0.0 -5.1365e-06
0.0 0.0 -5.1365e-06
0.0 0.0 0.0
0.0 0.0 0.0
0.0 0.0 0.0
0.0 0.0 0.0
0.0 0.0 0.0
0.0 0.0 0.0
0.0 0.0 0.0
0.0 0.0 0.0
0.0 0.0 0.0
0.0 0.0 0.0
0.0 0.0 0.0
0.0 0.0 0.0
0.0 0.0 0.0
0.0 0.0 0.0
0.0 0.0 0.0
0.0 0.0 0.0
0.0 0.0 -5.1365e-06
0.0 0.0 -5.1365e-06
0.0 0.0 -5.1365e-06
0.0 0.0 -5.1365e-06
7.86804e-07 -5.16389e-06 4.54551e-06
0.0 0.0 0.0
0.0 0.0 -5.1365e-06
0.0 0.0 0.0
0.0 0.0 0.0
0.0 0.0 0.0
0.0 0.0 0.0
0.0 0.0 0.0
0.0 0.0 0.0
0.0 0.0 0.0
0.0 0.0 0.0
0.0 0.0 0.0
0.0 0.0 0.0
