# vtk DataFile Version 3.0
LIGGGHTS particles timestep 120000
ASCII
DATASET POLYDATA
POINTS 173 float
0.0159315 0.0136558 0.019996
0.0156671 0.0159646 0.0152686
0.0191987 0.0229068 0.0158054
0.0182245 0.022868 0.0138733
0.0167011 0.0142191 0.0135722
0.0220984 0.0204938 0.0165424
0.0158141 0.00682474 0.0358118
0.0235426 0.018293 0.0170279
0.0129309 0.0221874 0.0175256
0.0221921 0.0146456 0.0137505
0.0171203 0.0240149 0.0132717
0.0208262 0.0142642 0.0128376
0.0190502 0.0240566 0.0128236
0.0195152 0.0237438 0.0145567
0.0221743 0.0218967 0.0171819
0.0206713 0.0166072 0.0152281
0.0161432 0.0185521 0.0180251
0.0259784 0.0199503 0.0170605
0.0192167 0.0190206 0.0159607
0.0286297 0.0320395 0.0592869
0.0217343 0.023122 0.0161582
0.0237028 0.0151821 0.0150452
0.0144505 0.0174684 0.0182406
0.0200609 0.0197667 0.015905
0.0175327 0.0186447 0.0169681
0.0192482 0.0243215 0.0137857
0.0199895 0.0242056 0.013126
0.0238471 0.0218461 0.0165633
0.0161046 0.0150213 0.0134105
0.0216713 0.0147954 0.0127803
0.0301206 0.0170749 0.0335167
0.0205641 0.0152488 0.0151387
0.0205564 0.0145336 0.0144366
0.0129074 0.0149346 0.0370127
0.0205463 0.0154977 0.0141707
0.0223003 0.0151961 0.0150648
0.0215307 0.0121461 0.0257964
0.0254518 0.0177343 0.0161319
0.0196348 0.0156484 0.018287
0.0185531 0.0143386 0.0139032
0.013843 0.0168589 0.0172834
0.0197246 0.0233115 0.0127614
0.0226227 0.0235749 0.0142155
0.0134505 0.0177366 0.0182619
0.0261822 0.0190322 0.0173465
0.0177569 0.0234735 0.0117711
0.0193245 0.0238497 0.0191631
0.0206112 0.0146261 0.0119308
0.0205112 0.0137695 0.018517
0.0172736 0.0166346 0.0162848
0.0205932 0.013824 0.0137334
0.0216036 0.0169237 0.015406
0.0186611 0.0199372 0.0238827
0.0253613 0.0186868 0.015922
0.0257731 0.025094 0.0265817
0.01494 0.0229245 0.0150485
0.0243664 0.0157102 0.0155888
0.0242722 0.0208508 0.0175554
0.0182914 0.0242899 0.0134975
0.0143225 0.0150415 0.0203391
0.0203145 0.014983 0.0133082
0.0175453 0.0144629 0.0140617
0.0132248 0.0207196 0.0156584
0.0247043 0.0212379 0.0153539
0.0195981 0.0218238 0.0154349
0.0155449 0.0234153 0.0144234
0.0192062 0.022992 0.0139306
0.01764 0.0132077 0.0195479
0.0260042 0.0178109 0.0171928
0.0133829 0.019635 0.015961
0.0188148 0.0139845 0.0129987
0.0196662 0.0169996 0.0154426
0.0196818 0.0141408 0.013472
0.0151128 0.0245797 0.0238717
0.0202179 0.0186988 0.0161583
0.017286 0.0236102 0.0141726
0.0203714 0.0224566 0.0148347
0.0178373 0.0140866 0.0131806
0.0255645 0.0170117 0.0168005
0.0130192 0.0205691 0.0166619
0.0194682 0.0179268 0.0158022
0.0145203 0.00616611 0.0666559
0.0257612 0.0208835 0.0169134
0.0230969 0.0222089 0.0159644
0.022543 0.0227819 0.0153589
0.0179219 0.0230779 0.0155038
0.0208472 0.0236613 0.015849
0.0212056 0.0227317 0.0153153
0.0207307 0.00541228 0.0435032
0.0238967 0.020636 0.0231867
0.021055 0.023506 0.0142744
0.0170041 0.0229717 0.0150746
0.0223005 0.0215801 0.0161627
0.0147298 0.0169875 0.0164283
0.0179071 0.0223751 0.0163983
0.0194301 0.0141216 0.0144392
0.023239 0.0210377 0.0163695
0.0152216 0.0194075 0.0176202
0.0141898 0.0204138 0.0165399
0.0107612 0.0210988 0.03068
0.0203644 0.0234548 0.0149983
0.0222275 0.0160982 0.0177236
0.0148159 0.0180517 0.0161055
0.0200441 0.0159459 0.0158454
0.0158376 0.00816428 0.0508324
0.0168866 0.0226416 0.0161984
0.014532 0.0214066 0.0154852
0.0180005 0.0219423 0.0192253
0.000959464 -0.00163647 0.0654976
0.0232992 0.0231682 0.0148299
0.01418 0.0223649 0.0147174
0.0186067 0.0218401 0.0154728
0.0200839 0.0233907 0.0137395
0.0141082 0.0165738 0.0188269
0.0204635 0.0242585 0.0140056
0.0169818 0.0152447 0.0158913
0.0204154 0.0206733 0.0156635
0.0142732 0.0233222 0.0279249
0.0163325 0.0237426 0.0139027
0.0113398 0.00439973 0.0520629
0.0187072 0.0231969 0.0131009
0.0205704 0.0216336 0.0154303
0.0137533 0.0214374 0.0161313
0.0193928 0.0225609 0.0147997
0.0229605 0.0157164 0.0156065
0.0245553 0.00619748 0.0413713
0.0259459 0.0171035 0.0251147
0.019092 0.0200075 0.0158542
0.0252353 0.021187 0.0161661
0.0229893 0.0147355 0.0145037
0.0205379 0.0237933 0.0173478
0.0165451 0.0212702 0.0162948
0.0179092 0.0238707 0.0126751
0.0222989 0.0188116 0.0170731
0.0205771 0.0175092 0.0156796
0.0193818 0.019843 0.0167971
0.0218021 0.0238398 0.0137078
0.0213409 0.015161 0.0136505
0.0218716 0.0232744 0.0148038
0.00462486 0.0261344 0.0526626
0.0238252 0.0229117 0.015645
0.0183144 0.0193688 0.019733
0.0198645 0.0196811 0.018665
0.0195648 0.0234786 0.0117883
0.0209668 0.0240175 0.0131881
0.0255347 0.0203183 0.0157656
0.0198949 0.016111 0.0148331
0.0190951 0.0209734 0.0155963
0.0011941 0.00362125 0.0569069
0.0145569 0.0194419 0.0167862
0.0254258 0.0185679 0.016905
0.0214437 0.0147243 0.0148557
0.024521 0.0140117 0.0279966
0.0253457 0.0194739 0.0164926
0.0186856 0.0206494 0.0165886
0.0210227 0.0194946 0.0159189
-0.00571502 -0.000780126 0.0525081
0.0134195 0.0185119 0.0162375
0.0141057 0.0138417 0.0417268
0.0214847 0.0157122 0.014473
0.0186558 0.0234471 0.0121508
0.0249767 0.0164379 0.0161192
0.0184113 0.0225213 0.0147766
0.0211894 0.00438996 0.0655001
0.00716111 0.0234395 0.0367228
0.0177524 0.0210624 0.0165473
0.0186241 0.013147 0.0201519
0.018669 0.0229478 0.0285927
0.0244451 0.0221392 0.0157879
0.0182611 0.0237521 0.0143403
0.0263596 0.0189738 0.0239473
0.0189037 0.0241977 0.016913
0.0214767 0.0139971 0.014168

VERTICES 173 346
1 0
1 1
1 2
1 3
1 4
1 5
1 6
1 7
1 8
1 9
1 10
1 11
1 12
1 13
1 14
1 15
1 16
1 17
1 18
1 19
1 20
1 21
1 22
1 23
1 24
1 25
1 26
1 27
1 28
1 29
1 30
1 31
1 32
1 33
1 34
1 35
1 36
1 37
1 38
1 39
1 40
1 41
1 42
1 43
1 44
1 45
1 46
1 47
1 48
1 49
1 50
1 51
1 52
1 53
1 54
1 55
1 56
1 57
1 58
1 59
1 60
1 61
1 62
1 63
1 64
1 65
1 66
1 67
1 68
1 69
1 70
1 71
1 72
1 73
1 74
1 75
1 76
1 77
1 78
1 79
1 80
1 81
1 82
1 83
1 84
1 85
1 86
1 87
1 88
1 89
1 90
1 91
1 92
1 93
1 94
1 95
1 96
1 97
1 98
1 99
1 100
1 101
1 102
1 103
1 104
1 105
1 106
1 107
1 108
1 109
1 110
1 111
1 112
1 113
1 114
1 115
1 116
1 117
1 118
1 119
1 120
1 121
1 122
1 123
1 124
1 125
1 126
1 127
1 128
1 129
1 130
1 131
1 132
1 133
1 134
1 135
1 136
1 137
1 138
1 139
1 140
1 141
1 142
1 143
1 144
1 145
1 146
1 147
1 148
1 149
1 150
1 151
1 152
1 153
1 154
1 155
1 156
1 157
1 158
1 159
1 160
1 161
1 162
1 163
1 164
1 165
1 166
1 167
1 168
1 169
1 170
1 171
1 172

POINT_DATA 173
SCALARS id int 1
LOOKUP_TABLE default
1
2
3
4
5
6
7
8
9
10
12
13
14
16
17
18
19
20
21
22
23
24
25
26
27
28
29
30
31
32
33
34
35
36
37
38
39
40
41
42
44
45
46
48
49
52
53
54
55
56
57
58
59
60
61
62
63
64
65
66
67
68
69
70
71
72
73
74
75
76
77
78
79
80
81
82
83
84
85
86
87
88
89
90
91
92
93
94
95
96
97
98
99
100
102
103
104
105
106
108
109
110
111
112
113
114
115
116
117
118
119
120
121
122
124
125
126
127
128
130
131
132
133
134
135
136
137
138
139
140
141
142
143
144
145
146
148
149
150
151
152
154
155
158
159
160
161
163
164
165
167
168
169
171
172
173
174
175
176
177
178
179
180
181
182
183
184
185
186
187
188
189
190

SCALARS type int 1
LOOKUP_TABLE default
1
1
1
1
1
1
1
1
1
1
1
1
1
1
1
1
1
1
1
1
1
1
1
1
1
1
1
1
1
1
1
1
1
1
1
1
1
1
1
1
1
1
1
1
1
1
1
1
1
1
1
1
1
1
1
1
1
1
1
1
1
1
1
1
1
1
1
1
1
1
1
1
1
1
1
1
1
1
1
1
1
1
1
1
1
1
1
1
1
1
1
1
1
1
1
1
1
1
1
1
1
1
1
1
1
1
1
1
1
1
1
1
1
1
1
1
1
1
1
1
1
1
1
1
1
1
1
1
1
1
1
1
1
1
1
1
1
1
1
1
1
1
1
1
1
1
1
1
1
1
1
1
1
1
1
1
1
1
1
1
1
1
1
1
1
1
1
1
1
1
1
1
1

SCALARS radius float 1
LOOKUP_TABLE default
0.0005
0.0005
0.0005
0.0005
0.0005
0.0005
0.0005
0.0005
0.0005
0.0005
0.0005
0.0005
0.0005
0.0005
0.0005
0.0005
0.0005
0.0005
0.0005
0.0005
0.0005
0.0005
0.0005
0.0005
0.0005
0.0005
0.0005
0.0005
0.0005
0.0005
0.0005
0.0005
0.0005
0.0005
0.0005
0.0005
0.0005
0.0005
0.0005
0.0005
0.0005
0.0005
0.0005
0.0005
0.0005
0.0005
0.0005
0.0005
0.0005
0.0005
0.0005
0.0005
0.0005
0.0005
0.0005
0.0005
0.0005
0.0005
0.0005
0.0005
0.0005
0.0005
0.0005
0.0005
0.0005
0.0005
0.0005
0.0005
0.0005
0.0005
0.0005
0.0005
0.0005
0.0005
0.0005
0.0005
0.0005
0.0005
0.0005
0.0005
0.0005
0.0005
0.0005
0.0005
0.0005
0.0005
0.0005
0.0005
0.0005
0.0005
0.0005
0.0005
0.0005
0.0005
0.0005
0.0005
0.0005
0.0005
0.0005
0.0005
0.0005
0.0005
0.0005
0.0005
0.0005
0.0005
0.0005
0.0005
0.0005
0.0005
0.0005
0.0005
0.0005
0.0005
0.0005
0.0005
0.0005
0.0005
0.0005
0.0005
0.0005
0.0005
0.0005
0.0005
0.0005
0.0005
0.0005
0.0005
0.0005
0.0005
0.0005
0.0005
0.0005
0.0005
0.0005
0.0005
0.0005
0.0005
0.0005
0.0005
0.0005
0.0005
0.0005
0.0005
0.0005
0.0005
0.0005
0.0005
0.0005
0.0005
0.0005
0.0005
0.0005
0.0005
0.0005
0.0005
0.0005
0.0005
0.0005
0.0005
0.0005
0.0005
0.0005
0.0005
0.0005
0.0005
0.0005
0.0005
0.0005
0.0005
0.0005
0.0005
0.0005

SCALARS mass float 1
LOOKUP_TABLE default
5.23599e-07
5.23599e-07
5.23599e-07
5.23599e-07
5.23599e-07
5.23599e-07
5.23599e-07
5.23599e-07
5.23599e-07
5.23599e-07
5.23599e-07
5.23599e-07
5.23599e-07
5.23599e-07
5.23599e-07
5.23599e-07
5.23599e-07
5.23599e-07
5.23599e-07
5.23599e-07
5.23599e-07
5.23599e-07
5.23599e-07
5.23599e-07
5.23599e-07
5.23599e-07
5.23599e-07
5.23599e-07
5.23599e-07
5.23599e-07
5.23599e-07
5.23599e-07
5.23599e-07
5.23599e-07
5.23599e-07
5.23599e-07
5.23599e-07
5.23599e-07
5.23599e-07
5.23599e-07
5.23599e-07
5.23599e-07
5.23599e-07
5.23599e-07
5.23599e-07
5.23599e-07
5.23599e-07
5.23599e-07
5.23599e-07
5.23599e-07
5.23599e-07
5.23599e-07
5.23599e-07
5.23599e-07
5.23599e-07
5.23599e-07
5.23599e-07
5.23599e-07
5.23599e-07
5.23599e-07
5.23599e-07
5.23599e-07
5.23599e-07
5.23599e-07
5.23599e-07
5.23599e-07
5.23599e-07
5.23599e-07
5.23599e-07
5.23599e-07
5.23599e-07
5.23599e-07
5.23599e-07
5.23599e-07
5.23599e-07
5.23599e-07
5.23599e-07
5.23599e-07
5.23599e-07
5.23599e-07
5.23599e-07
5.23599e-07
5.23599e-07
5.23599e-07
5.23599e-07
5.23599e-07
5.23599e-07
5.23599e-07
5.23599e-07
5.23599e-07
5.23599e-07
5.23599e-07
5.23599e-07
5.23599e-07
5.23599e-07
5.23599e-07
5.23599e-07
5.23599e-07
5.23599e-07
5.23599e-07
5.23599e-07
5.23599e-07
5.23599e-07
5.23599e-07
5.23599e-07
5.23599e-07
5.23599e-07
5.23599e-07
5.23599e-07
5.23599e-07
5.23599e-07
5.23599e-07
5.23599e-07
5.23599e-07
5.23599e-07
5.23599e-07
5.23599e-07
5.23599e-07
5.23599e-07
5.23599e-07
5.23599e-07
5.23599e-07
5.23599e-07
5.23599e-07
5.23599e-07
5.23599e-07
5.23599e-07
5.23599e-07
5.23599e-07
5.23599e-07
5.23599e-07
5.23599e-07
5.23599e-07
5.23599e-07
5.23599e-07
5.23599e-07
5.23599e-07
5.23599e-07
5.23599e-07
5.23599e-07
5.23599e-07
5.23599e-07
5.23599e-07
5.23599e-07
5.23599e-07
5.23599e-07
5.23599e-07
5.23599e-07
5.23599e-07
5.23599e-07
5.23599e-07
5.23599e-07
5.23599e-07
5.23599e-07
5.23599e-07
5.23599e-07
5.23599e-07
5.23599e-07
5.23599e-07
5.23599e-07
5.23599e-07
5.23599e-07
5.23599e-07
5.23599e-07
5.23599e-07
5.23599e-07
5.23599e-07
5.23599e-07
5.23599e-07
5.23599e-07
5.23599e-07
5.23599e-07
5.23599e-07

VECTORS velocity float
-0.033864 0.0272693 -0.144383
0.0134738 -0.0512954 -0.064652
0.0135773 0.0357274 -0.0104585
0.0118499 0.00316448 -0.00689852
0.00198818 -0.000341593 0.0192094
0.017339 0.040805 -0.0120407
0.0459339 0.180712 0.0473953
-0.00149477 0.0304674 0.0358406
-0.0103601 -0.0123935 0.0440094
-0.000325266 0.0149408 -0.0438755
0.00223719 -0.00395031 0.00255174
0.000140862 0.000461831 0.000856247
-0.00025478 -0.0010196 -0.0108991
0.00201227 0.00280767 0.00168965
-0.0362452 0.0862673 -0.0378201
0.00631939 0.0225432 0.0203242
0.00490241 0.0670723 -0.102969
-0.000769956 -0.00166408 -0.00267247
0.00412391 -0.000189074 0.00242803
0.149464 0.423011 0.708698
0.00679198 0.0302126 0.0140711
0.000867429 0.00312402 -0.00268361
0.111315 0.0378283 -0.202035
-0.000355121 -0.00440364 -0.00260899
0.116721 0.0627064 -0.144
0.00153577 0.010145 0.00479092
-0.00198306 -0.00164527 0.00660701
-0.0420858 0.0162106 0.0679236
-0.00796277 0.0224928 0.0170881
0.000430381 0.00164573 -0.00476112
-0.127425 0.0421878 -0.0380445
0.00734647 -0.00332814 0.00579097
-0.00169816 0.00239782 -0.00264009
0.216913 0.181002 -0.0414695
-0.00168479 0.00175415 0.00774882
-0.00483015 0.0016884 -0.000568076
-0.00267272 0.136172 -0.558511
0.00884078 0.0143556 0.0117952
0.293748 -0.458331 -0.165961
-0.011711 0.00761863 0.0305363
0.0314875 0.0602136 -0.0890082
0.00844165 0.00314073 -0.00531265
0.00177094 -0.00240644 -0.00279451
0.0759445 0.0362138 -0.167842
-0.00105288 -0.00631471 -0.00151099
0.0105732 -0.00752238 0.0318773
0.222293 0.0367211 0.00832675
0.0117491 -0.00169923 -0.000427814
0.0628548 0.101132 -0.121133
0.0630594 -0.0450352 0.016068
-0.00154609 0.000697525 -0.0030617
0.00151005 0.0330256 0.0302496
-0.0879361 -0.273791 -0.169196
-0.0080735 0.0143401 0.000607836
-0.0484195 -0.066091 -0.2116
0.00789271 0.0378171 -0.000508846
-0.00155341 -0.0107006 -0.00256543
-0.049264 0.0684465 0.0361467
0.00435713 0.00418377 0.0101135
-0.0267439 0.0790887 -0.207528
0.00536596 -0.000169512 0.010521
0.0201251 0.00408935 0.00819576
-0.0239762 0.0138249 -0.034935
0.00289745 0.0507721 -0.0236258
0.0073776 0.0102783 -0.00784807
0.0210517 0.0180742 -0.0101074
0.0117881 0.0143156 -0.00851532
0.0770428 -0.0509436 -0.144963
-0.000699039 0.000603734 2.15591e-05
-0.000868302 0.0318272 -0.0351341
-0.00463391 -0.000185653 0.00687556
0.00816317 0.0140261 0.00700721
-0.00160094 -0.00382681 0.00127063
0.0912519 -0.231605 0.0278414
0.00838235 -0.0005249 -0.0393146
0.0152386 0.00460166 -0.00757964
0.0112352 0.0145813 -0.00573741
-0.00533049 -0.00100104 0.00483702
-0.00110311 -0.000133689 0.000448153
-0.0806007 0.0749362 -0.0926548
0.00445506 0.0144987 0.00227399
-0.0348884 -0.0153626 0.164895
-0.00129636 0.00128835 -0.002979
0.0330591 0.0169232 0.00150738
-0.000328049 -0.00417434 0.00741681
-0.0267206 0.119377 -0.0816883
-0.00866862 0.00313492 0.017669
0.0201384 0.0101723 0.000615357
0.0161265 0.176546 -0.0227858
-0.213191 -0.125355 0.0434654
0.00736453 0.00944986 0.000229607
-0.0116594 0.0848404 -0.0788425
-0.0469112 0.0341027 -0.0517278
0.076153 -0.0291157 -0.16991
0.065491 0.0238366 -0.026705
-0.000140468 0.00074188 0.00563467
-0.0457257 0.00843552 -0.0187619
-0.0277873 0.0194499 -0.136465
-0.0172691 0.0510039 -0.0626853
0.107966 -0.055035 -0.219187
0.00280573 -0.00136042 0.00743581
0.12189 -0.0891512 0.0493879
-0.0121977 0.0231598 0.0875115
0.00757212 -0.00313191 -0.00285674
-0.0753497 0.034003 -0.0217998
-0.0372724 -0.0364962 -0.0637599
0.01434 0.0908278 0.0195144
0.0901016 -0.135509 0.0509181
-0.224115 -0.278307 0.156034
0.000723737 -0.00353269 0.00136105
-0.0362845 0.0605629 -0.00997272
0.00896244 0.0162845 -0.00389882
0.0116725 0.0144998 0.00507351
0.0274072 6.18648e-06 -0.188768
0.00764434 0.00493574 0.00396186
0.0317002 -0.103308 -0.0874637
0.0082958 0.00633737 -0.00203811
-0.0953528 0.182198 -0.272919
0.020871 0.0105013 -0.0115693
-0.013676 -0.146645 0.026064
0.00894697 0.00207773 -0.0116215
0.00813794 0.013694 -0.00169734
0.00433089 0.101907 -0.0858988
0.0131483 0.0178948 0.00375878
0.00463404 -0.0066293 -0.00286433
0.16545 -0.14709 -0.118474
-0.119148 0.00815135 -0.217304
-0.00492408 0.00298773 0.00337476
-0.0107377 0.0115236 -0.00424568
-0.00399487 -0.00569556 0.00321359
-0.035721 -0.134125 -0.289223
0.00398242 0.0886516 0.0404686
0.00446455 0.00367622 0.0110185
-0.025771 0.0289436 -0.0613927
0.0138936 0.0322056 0.0373983
0.00401084 0.0150975 -0.000689882
0.00253119 0.00392548 -0.00109949
-0.0136744 0.00110989 -0.00577356
0.00210706 0.000132995 0.00384897
-0.0288315 0.00583203 0.630292
0.00713824 -0.0238677 -0.00415799
0.115541 0.0984447 0.139663
0.154994 0.127949 -0.354766
0.00444608 0.00245087 -0.00249794
0.00346106 -0.000728806 0.00932778
0.0132206 0.00878962 -0.00297161
0.00688691 0.0182978 0.0154253
0.0119405 0.00400858 0.00507356
-0.211322 -0.0521603 0.105028
0.0184973 0.0673058 0.0387065
-0.0144281 -0.00324381 0.00452978
-0.00238865 0.00268703 -0.00403351
-0.122662 0.0886526 -0.110451
-0.0140049 0.00164438 0.011846
0.018608 0.0582588 0.0354874
0.000627187 0.0343419 -0.00849615
-0.288824 -0.27174 0.00426928
0.00883297 0.0382143 0.103013
0.115694 -0.0164568 -0.126719
0.0122306 -0.00416704 -0.00428068
-0.0059234 -0.0168472 0.00351016
-0.000973698 -0.0024872 -0.0188692
0.0152211 0.0121162 0.00563605
-0.0787969 -0.0705144 0.141868
0.0499592 -0.0425583 -0.162942
0.0135851 0.0831156 0.000246088
0.0892764 0.093436 -0.166051
0.173917 -0.126546 -0.252096
0.0348793 0.0160394 0.071407
0.0142744 -0.000461736 0.00530123
-0.217735 0.122463 -0.0253405
0.0154102 -0.112447 -0.323481
0.0022059 0.00621793 -0.00851278

VECTORS force float
0.0 0.0 -5.1365e-06
0.0 0.0 -5.1365e-06
0.0 0.0 -5.1365e-06
-0.00036961 3.99633e-05 -0.000734204
0.0 0.0 -5.1365e-06
0.0 0.0 -5.1365e-06
0.0 0.0 -5.1365e-06
0.0 0.0 -5.1365e-06
0.0 0.0 -5.1365e-06
0.0 0.0 -5.1365e-06
-2.11717e-05 8.10908e-06 1.28362e-05
6.46507e-06 3.69997e-06 1.19481e-05
0.0011318 -0.000827417 0.0014183
-1.02637e-06 -2.75528e-06 6.24356e-06
0.0 0.0 -5.1365e-06
0.0 0.0 -5.1365e-06
0.0 0.0 -5.1365e-06
3.92061e-05 2.81442e-05 -8.40244e-06
0.0 0.0 -5.1365e-06
0.0 0.0 -5.1365e-06
0.0 0.0 -5.1365e-06
-3.60644e-07 -9.19037e-06 1.77664e-05
0.0 0.0 -5.1365e-06
-7.82127e-06 2.62731e-05 -1.4233e-05
0.0 0.0 -5.1365e-06
-6.61962e-05 -3.20439e-05 2.00722e-05
-0.000118003 -0.000158695 -0.000176584
0.0 0.0 -5.1365e-06
0.0 0.0 -5.1365e-06
2.68598e-06 5.34115e-06 5.19537e-06
0.0 0.0 -5.1365e-06
5.12476e-07 -8.94143e-06 1.33468e-05
-2.09877e-06 3.69093e-06 -1.16593e-05
0.0 0.0 -5.1365e-06
-1.02337e-09 -1.43783e-06 -1.22491e-06
1.63324e-06 4.09013e-07 -5.66907e-06
0.0 0.0 -5.1365e-06
6.79475e-06 3.04925e-05 2.1274e-06
0.0 0.0 -5.1365e-06
0.0 0.0 -5.1365e-06
0.0 0.0 -5.1365e-06
-2.12125e-06 2.53555e-05 -9.07268e-06
0.0 0.0 -5.1365e-06
0.0 0.0 -5.1365e-06
4.15908e-05 -1.813e-05 -3.13439e-05
0.00145239 0.00943287 -0.00178875
0.0 0.0 -5.1365e-06
-1.52478e-05 9.09291e-06 -6.06521e-06
0.0 0.0 -5.1365e-06
0.0 0.0 -5.1365e-06
-1.25671e-05 -4.0136e-06 -1.09416e-06
0.0 0.0 -5.1365e-06
0.0 0.0 -5.1365e-06
4.1402e-05 0.000100221 1.81199e-06
0.0 0.0 -5.1365e-06
-1.11699e-05 -9.11452e-05 7.61005e-05
-1.41695e-07 -8.32244e-07 9.11631e-08
0.0 0.0 -5.1365e-06
1.33474e-05 2.98896e-05 5.48091e-05
0.0 0.0 -5.1365e-06
-4.32241e-07 -5.36134e-06 2.14868e-06
0.0 0.0 -5.1365e-06
0.0 0.0 -5.1365e-06
-2.12971e-05 -2.60829e-05 3.04913e-05
9.63168e-05 -1.63811e-05 9.07713e-05
-4.48695e-06 -4.67899e-05 3.81988e-05
-0.000256303 -0.000199937 0.000206456
0.0 0.0 -5.1365e-06
3.461e-05 1.52136e-05 1.19729e-05
0.0 0.0 -5.1365e-06
2.56267e-05 6.8354e-06 -2.56e-05
-8.63769e-08 -4.66594e-08 -3.48922e-06
-1.38792e-05 -8.26706e-06 6.69224e-06
0.0 0.0 -5.1365e-06
0.0 0.0 -5.1365e-06
-9.10643e-06 -5.31074e-06 1.43564e-05
3.95339e-05 9.4959e-05 0.00018413
-1.85023e-05 4.06303e-06 1.57543e-05
-1.45325e-05 1.02029e-05 -6.00965e-06
0.0 0.0 -5.1365e-06
-2.51543e-07 9.58058e-07 4.12661e-07
0.0 0.0 -5.1365e-06
3.89605e-05 2.80068e-05 2.79691e-05
0.0 0.0 -5.1365e-06
0.0 0.0 -5.1365e-06
0.0 0.0 -5.1365e-06
3.19446e-06 -2.30105e-06 4.3507e-06
-2.65614e-05 -3.52148e-06 -5.00368e-06
0.0 0.0 -5.1365e-06
0.0 0.0 -5.1365e-06
3.77594e-05 -3.22176e-05 7.77297e-05
0.0 0.0 -5.1365e-06
0.0 0.0 -5.1365e-06
0.0 0.0 -5.1365e-06
0.0 0.0 -5.1365e-06
-3.74387e-06 -9.40947e-06 1.60484e-05
0.0 0.0 -5.1365e-06
0.0 0.0 -5.1365e-06
0.0 0.0 -5.1365e-06
0.0 0.0 -5.1365e-06
-3.51951e-06 2.62394e-06 -1.46598e-05
0.0 0.0 -5.1365e-06
0.0 0.0 -5.1365e-06
0.0 0.0 -5.1365e-06
0.0 0.0 -5.1365e-06
0.0 0.0 -5.1365e-06
0.0 0.0 -5.1365e-06
0.0 0.0 -5.1365e-06
0.0 0.0 -5.1365e-06
0.0 0.0 -5.1365e-06
0.0 0.0 -5.1365e-06
5.45328e-05 -0.000170183 0.000213006
-4.52023e-05 1.59662e-05 -1.91791e-05
0.0 0.0 -5.1365e-06
-0.000136044 -3.55045e-06 2.76606e-05
0.0 0.0 -5.1365e-06
0.0 0.0 -5.1365e-06
0.0 0.0 -5.1365e-06
1.81828e-05 1.8223e-05 -4.33699e-05
0.0 0.0 -5.1365e-06
-0.00155833 -0.000160618 -0.0005524
3.63963e-05 -1.6774e-05 7.3871e-06
0.0 0.0 -5.1365e-06
-4.58674e-05 1.84497e-05 -3.65468e-05
0.0 0.0 -5.1365e-06
0.0 0.0 -5.1365e-06
0.0 0.0 -5.1365e-06
-5.22895e-06 -1.41043e-05 6.75653e-06
1.99888e-05 -1.03943e-05 2.07756e-05
0.0 0.0 -5.1365e-06
0.0 0.0 -5.1365e-06
0.0 0.0 -5.1365e-06
1.38248e-05 -4.04926e-05 -3.36866e-05
0.0 0.0 -5.1365e-06
0.0 0.0 -5.1365e-06
0.0 0.0 -5.1365e-06
5.18682e-05 -1.75737e-05 3.5555e-05
2.47628e-06 -1.7567e-05 1.85883e-05
2.65614e-05 3.52148e-06 -5.26933e-06
0.0 0.0 -5.1365e-06
0.0 0.0 -5.1365e-06
0.0 0.0 -5.1365e-06
0.0 0.0 -5.1365e-06
2.79245e-05 -0.000849965 0.000664144
-5.82513e-05 -7.76593e-05 -6.2079e-06
0.0 0.0 -5.1365e-06
-8.1187e-07 -1.95338e-06 2.59673e-06
-7.93855e-06 1.18259e-05 -8.52927e-06
0.0 0.0 -5.1365e-06
0.0 0.0 -5.1365e-06
-3.88454e-05 -9.9887e-06 -2.14033e-07
7.80527e-06 8.76544e-06 8.77713e-06
0.0 0.0 -5.1365e-06
8.50891e-06 -1.89493e-05 0.000109847
0.0 0.0 -5.1365e-06
1.83033e-05 -1.0609e-05 1.78032e-05
0.0 0.0 -5.1365e-06
0.0 0.0 -5.1365e-06
0.0 0.0 -5.1365e-06
0.0 0.0 -5.1365e-06
8.9661e-05 -0.00866849 0.00221188
0.0 0.0 -5.1365e-06
-0.000142505 3.02802e-05 -0.00015657
0.0 0.0 -5.1365e-06
0.0 0.0 -5.1365e-06
0.0 0.0 -5.1365e-06
0.0 0.0 -5.1365e-06
0.0 0.0 -5.1365e-06
0.0 0.0 -5.1365e-06
2.03388e-05 7.66879e-06 -1.34991e-05
0.0 0.0 -5.1365e-06
0.0 0.0 -5.1365e-06
8.67928e-06 1.13561e-07 8.01029e-06
