# vtk DataFile Version 3.0
LIGGGHTS particles timestep 380000
ASCII
DATASET POLYDATA
POINTS 101 float
0.0203771 0.0206665 0.016066
0.0210462 0.0235625 0.0143735
0.021636 0.0239373 0.0136572
0.0159274 0.015364 0.0139979
0.0208225 0.0240587 0.0131796
0.0218289 0.0231398 0.0148273
0.0148111 0.0141342 0.0160741
0.0210132 0.0140085 0.0143729
0.0191187 0.013722 0.0134319
0.0239325 0.0216246 0.0160962
0.0211757 0.0235928 0.01606
0.0229329 0.0216253 0.0160815
0.0198758 0.0234764 0.0120111
0.0202072 0.0233759 0.0138325
0.0199851 0.0140109 0.0130217
0.0451793 0.0409843 0.0521857
0.020052 0.0239579 0.0146225
0.0189495 0.0234645 0.011749
0.0209858 0.0231084 0.013277
0.0204353 0.0225194 0.0142806
0.0223481 0.0171921 0.0155337
0.0199336 0.0213065 0.0153294
0.0167728 0.0224909 0.0154773
0.0190285 0.0239387 0.0126003
0.0232696 0.0207822 0.0165129
0.0201512 0.0229205 0.0160321
0.025281 0.0212324 0.016324
0.0221963 0.0154859 0.0141827
0.0190531 0.0239865 0.0145613
0.0193293 0.0221948 0.0158917
0.0172922 0.0143084 0.0129327
0.0178303 0.0240636 0.0130807
0.0197538 0.0238506 0.0157574
0.0164261 0.0148049 0.0128429
0.0209713 0.0199821 0.0165046
0.0230137 0.0159616 0.0147071
0.0219431 0.0161517 0.0148863
0.0181128 0.0237871 0.0139988
0.0209821 0.0191289 0.0159811
0.0196986 0.0230902 0.0149732
0.0163225 0.0231238 0.014848
0.0232921 0.0176805 0.0167469
0.0192118 0.0211353 0.0169552
0.020477 0.0248018 0.0151432
0.0169022 0.0239314 0.0134282
0.0188166 0.0244318 0.0136987
0.0216107 0.0220145 0.0148109
0.0266252 0.020665 0.0154945
0.0209943 0.0165184 0.0151521
0.0213731 0.0227215 0.0156116
0.0257309 0.0203302 0.0166263
0.0182456 0.0140344 0.0130581
0.0168822 0.0177936 0.0211437
0.020635 0.0233216 0.0152537
0.0185704 0.0201531 0.0168104
0.0199305 0.0239129 0.0128893
0.0170916 0.0234977 0.0143085
0.0213912 0.0226713 0.0140716
0.0187823 0.0237136 0.0155279
0.020822 0.0234677 0.0118374
0.019684 0.02211 0.0147802
0.021642 0.0147851 0.0127694
0.0138009 0.016326 0.041123
0.014717 0.0226448 0.0141148
0.0206772 0.0178016 0.01577
0.0235149 0.01506 0.0148829
0.0231468 0.0232749 0.0146124
0.016683 0.014454 0.0137433
0.0212909 0.0215054 0.0161851
0.0220267 0.0143904 0.014035
0.0247923 0.0161909 0.0159635
0.0241988 0.022422 0.0155545
0.0227655 0.0144059 0.0147298
0.0192727 0.0235595 0.0135333
0.0183356 0.0225348 0.0154667
0.0235665 0.0231929 0.0154835
0.0184576 0.0232021 0.0147324
0.0201551 0.0235709 0.0168312
0.0180777 0.0144453 0.0143753
0.0226711 0.0158434 0.0156398
0.0215935 0.0207482 0.0156068
0.017534 0.0229521 0.0150219
0.0223832 0.0236592 0.0141843
0.0212317 0.0156628 0.0143815
0.0239998 0.015682 0.0155404
0.0224324 0.0149914 0.0133462
0.0225825 0.0233724 0.0154256
0.0221078 0.0230659 0.0162715
0.0212295 0.0141921 0.0134507
0.0247865 0.022101 0.016304
0.0194861 0.0227162 0.0140151
0.022058 0.0220199 0.0158029
0.0174166 0.0146259 0.0119927
0.020509 0.0223278 0.0153001
0.0200671 0.0244054 0.0137298
0.0161466 0.0236656 0.0140266
0.0209263 0.0214202 0.0152572
0.00926359 0.0178132 0.00826749
0.0231589 0.0153364 0.0139403
0.0229132 0.022446 0.015511
0.0218957 0.0167192 0.0163136

VERTICES 101 202
1 0
1 1
1 2
1 3
1 4
1 5
1 6
1 7
1 8
1 9
1 10
1 11
1 12
1 13
1 14
1 15
1 16
1 17
1 18
1 19
1 20
1 21
1 22
1 23
1 24
1 25
1 26
1 27
1 28
1 29
1 30
1 31
1 32
1 33
1 34
1 35
1 36
1 37
1 38
1 39
1 40
1 41
1 42
1 43
1 44
1 45
1 46
1 47
1 48
1 49
1 50
1 51
1 52
1 53
1 54
1 55
1 56
1 57
1 58
1 59
1 60
1 61
1 62
1 63
1 64
1 65
1 66
1 67
1 68
1 69
1 70
1 71
1 72
1 73
1 74
1 75
1 76
1 77
1 78
1 79
1 80
1 81
1 82
1 83
1 84
1 85
1 86
1 87
1 88
1 89
1 90
1 91
1 92
1 93
1 94
1 95
1 96
1 97
1 98
1 99
1 100

POINT_DATA 101
SCALARS id int 1
LOOKUP_TABLE default
1
2
3
5
6
7
9
10
12
13
14
17
18
21
23
25
26
29
35
36
38
39
40
42
44
45
48
49
52
53
54
57
60
62
63
64
65
66
67
68
69
70
74
75
76
79
80
81
82
84
85
86
87
88
90
91
92
96
97
98
100
104
105
106
108
110
111
112
114
115
119
125
126
128
131
133
135
136
143
144
148
149
152
154
158
159
165
167
168
171
172
175
176
177
178
182
184
185
186
187
190

SCALARS type int 1
LOOKUP_TABLE default
1
1
1
1
1
1
1
1
1
1
1
1
1
1
1
1
1
1
1
1
1
1
1
1
1
1
1
1
1
1
1
1
1
1
1
1
1
1
1
1
1
1
1
1
1
1
1
1
1
1
1
1
1
1
1
1
1
1
1
1
1
1
1
1
1
1
1
1
1
1
1
1
1
1
1
1
1
1
1
1
1
1
1
1
1
1
1
1
1
1
1
1
1
1
1
1
1
1
1
1
1

SCALARS radius float 1
LOOKUP_TABLE default
0.0005
0.0005
0.0005
0.0005
0.0005
0.0005
0.0005
0.0005
0.0005
0.0005
0.0005
0.0005
0.0005
0.0005
0.0005
0.0005
0.0005
0.0005
0.0005
0.0005
0.0005
0.0005
0.0005
0.0005
0.0005
0.0005
0.0005
0.0005
0.0005
0.0005
0.0005
0.0005
0.0005
0.0005
0.0005
0.0005
0.0005
0.0005
0.0005
0.0005
0.0005
0.0005
0.0005
0.0005
0.0005
0.0005
0.0005
0.0005
0.0005
0.0005
0.0005
0.0005
0.0005
0.0005
0.0005
0.0005
0.0005
0.0005
0.0005
0.0005
0.0005
0.0005
0.0005
0.0005
0.0005
0.0005
0.0005
0.0005
0.0005
0.0005
0.0005
0.0005
0.0005
0.0005
0.0005
0.0005
0.0005
0.0005
0.0005
0.0005
0.0005
0.0005
0.0005
0.0005
0.0005
0.0005
0.0005
0.0005
0.0005
0.0005
0.0005
0.0005
0.0005
0.0005
0.0005
0.0005
0.0005
0.0005
0.0005
0.0005
0.0005

SCALARS mass float 1
LOOKUP_TABLE default
5.23599e-07
5.23599e-07
5.23599e-07
5.23599e-07
5.23599e-07
5.23599e-07
5.23599e-07
5.23599e-07
5.23599e-07
5.23599e-07
5.23599e-07
5.23599e-07
5.23599e-07
5.23599e-07
5.23599e-07
5.23599e-07
5.23599e-07
5.23599e-07
5.23599e-07
5.23599e-07
5.23599e-07
5.23599e-07
5.23599e-07
5.23599e-07
5.23599e-07
5.23599e-07
5.23599e-07
5.23599e-07
5.23599e-07
5.23599e-07
5.23599e-07
5.23599e-07
5.23599e-07
5.23599e-07
5.23599e-07
5.23599e-07
5.23599e-07
5.23599e-07
5.23599e-07
5.23599e-07
5.23599e-07
5.23599e-07
5.23599e-07
5.23599e-07
5.23599e-07
5.23599e-07
5.23599e-07
5.23599e-07
5.23599e-07
5.23599e-07
5.23599e-07
5.23599e-07
5.23599e-07
5.23599e-07
5.23599e-07
5.23599e-07
5.23599e-07
5.23599e-07
5.23599e-07
5.23599e-07
5.23599e-07
5.23599e-07
5.23599e-07
5.23599e-07
5.23599e-07
5.23599e-07
5.23599e-07
5.23599e-07
5.23599e-07
5.23599e-07
5.23599e-07
5.23599e-07
5.23599e-07
5.23599e-07
5.23599e-07
5.23599e-07
5.23599e-07
5.23599e-07
5.23599e-07
5.23599e-07
5.23599e-07
5.23599e-07
5.23599e-07
5.23599e-07
5.23599e-07
5.23599e-07
5.23599e-07
5.23599e-07
5.23599e-07
5.23599e-07
5.23599e-07
5.23599e-07
5.23599e-07
5.23599e-07
5.23599e-07
5.23599e-07
5.23599e-07
5.23599e-07
5.23599e-07
5.23599e-07
5.23599e-07

VECTORS velocity float
-0.00401405 -0.013639 -0.0340775
0.0190257 0.0125458 0.0242006
-0.0124172 0.00651658 -0.00201981
0.0165404 -0.0610958 -0.0809907
-0.00652618 -0.0114806 -0.00156914
-0.00020292 -0.00071665 0.00382738
7.66358e-21 -1.17022e-19 2.0377e-20
0.000558745 -0.000506195 0.000305086
0.00545093 0.00016322 -0.0010868
-0.00328195 0.000956834 -0.000947329
-0.000664749 0.00658436 0.00422056
-0.00214996 -0.000500861 0.00357755
-0.00590595 -0.103818 0.0516903
-0.0060693 0.0175709 -0.0236225
-0.00142088 0.00207905 -0.00677993
0.36535 0.268348 -0.198627
-0.0129009 0.00228962 -0.022938
0.0112607 0.0110641 0.011772
0.0133633 0.00104667 -0.00195954
0.0128672 0.00682519 0.013565
-0.00703707 0.017735 0.00986987
0.0154809 -0.00836003 0.0112575
0.000312823 0.00864717 0.0030873
0.0842548 -0.0423305 0.0427444
0.00150585 -0.00513858 -0.0129923
-0.0484154 -0.00407748 -0.00322986
-0.000289079 0.00334749 0.00429761
0.00929952 0.00991062 0.0136453
0.00246898 0.00279335 0.0101588
-0.0240124 -0.054421 0.00680836
-0.00249737 -0.00106048 0.00589408
0.000859785 -0.000433458 -0.00322723
-0.00111361 0.004164 0.00625026
-0.000143088 -0.00292824 0.000387625
0.0108438 0.00686093 0.0130425
0.00988415 0.0147 0.0141331
0.00172796 0.000160262 0.00841692
0.000744668 -0.0022867 -0.00368903
0.000806638 0.0114971 0.02054
-0.0144476 0.0083762 -0.00808343
0.0011034 0.00513069 -0.00202676
-0.0750551 -0.0148394 0.000465153
-0.0431319 -0.14957 -0.126373
6.76543e-18 -1.5647e-18 2.96201e-18
0.00098386 0.00422749 -0.00333095
-0.0161204 0.0182676 0.0143763
0.0115909 -0.00678432 0.00274051
-0.311733 3.43281 2.20507
0.00389011 0.0245936 0.0178758
-0.00453414 -0.0045533 0.0119436
-0.0108986 -0.018853 -0.0430968
-0.00124115 -0.00390124 0.0103269
0.131267 -0.0232489 -0.472008
-0.00429997 -0.00576904 0.0234868
0.16423 0.0162799 -0.369248
0.0473368 -0.0462257 0.0306703
0.00350559 0.00166821 -0.00609635
0.0154515 -0.00124445 -0.00290891
0.00294262 -0.000721609 -0.00400448
0.0317724 -0.0474851 -0.0114366
0.0147569 -0.00283232 0.0149051
0.0140102 0.00258293 0.0149055
-0.237375 -0.155984 -0.27292
0.0175311 0.00883666 -0.0071184
0.00349305 0.0380943 0.0120241
0.0120841 0.00560614 -0.00179771
0.00205549 -0.00404774 0.0266259
-0.0059148 -0.0162835 -0.000137623
-0.00901891 0.00131721 0.00195011
0.00698404 6.44794e-05 0.00509138
0.0222201 -0.000476633 0.0154414
0.00142439 0.0003076 -0.0029349
0.0049873 0.00288586 0.00232231
-0.00684623 0.0276076 -0.0465793
0.00424754 0.0019003 -0.00275269
-0.00150368 0.00372787 -0.00131694
0.00205236 8.14002e-05 -0.00425389
-0.0571205 0.0546756 -0.0604105
-0.023004 -0.0297549 -0.0144236
0.00248387 -0.0218618 0.00561115
0.0106446 0.0154063 -0.00794233
0.00176378 0.00436236 -0.00335745
0.0222016 0.00710549 0.0205353
0.00903268 0.00197434 0.00562751
0.0187494 0.00993601 0.0173891
0.011377 0.00744413 0.0183129
-0.000465675 -0.0033764 0.00472111
-0.00553484 -0.0113939 0.0077033
0.00308971 0.000867215 0.0021607
-0.00418742 0.0042274 0.00143378
0.00192987 0.0111041 -0.0227199
-0.00185461 -0.00273945 0.0112137
0.00222687 -0.0027442 0.00595771
-0.00263572 0.00230052 0.00593017
-0.00839416 0.0186786 -0.028507
0.00260636 -0.000403094 -0.00504165
0.012492 0.0106857 -0.00528295
-0.00377265 0.00343054 -0.0025802
0.0152259 0.0115466 0.0133801
0.000787385 -0.00247938 0.00966265
-0.046912 -0.0410274 -0.0424402

VECTORS force float
0.0 0.0 -5.1365e-06
-9.26992e-05 0.000123536 -0.000101409
0.0039639 0.00445121 -0.00102323
0.0 0.0 -5.1365e-06
-0.000723186 -0.00180054 -0.00574855
0.000385556 9.82536e-05 0.000181079
0.0 0.0 0.0
-1.68469e-06 6.06211e-06 -5.02464e-06
4.80809e-06 -5.45325e-06 3.01062e-06
5.8198e-06 -1.04146e-06 5.88488e-06
-1.0184e-05 -3.72366e-05 -4.75263e-07
3.42613e-05 -2.50095e-05 2.20067e-05
-0.00257135 -0.0134224 0.0033252
-0.000562158 -0.000237021 -0.000646597
-2.36136e-07 1.5107e-07 -2.05687e-06
0.0 0.0 -5.1365e-06
-0.000265205 0.000106399 -0.000364553
-0.0159195 0.0182322 0.000386655
0.00412684 0.000565332 0.00207727
1.80377e-05 -0.000311706 0.000250677
1.16667e-06 1.93398e-07 4.31683e-06
-8.69357e-07 6.31957e-06 -1.13195e-06
-2.90762e-06 -7.03714e-07 6.07134e-06
0.00942437 -0.00626857 0.0104508
0.0 0.0 -5.1365e-06
0.0 0.0 -5.1365e-06
3.17884e-06 1.53875e-05 5.8692e-06
2.95634e-06 1.50496e-06 -3.26502e-06
-9.41285e-06 1.76803e-06 2.86389e-05
0.0 0.0 -5.1365e-06
2.75049e-06 3.1209e-06 -3.88724e-06
-2.25126e-06 2.62224e-06 -1.23643e-05
0.0 0.0 -5.1365e-06
2.26247e-08 4.12703e-09 -5.10513e-06
0.0 0.0 -5.1365e-06
8.50155e-07 -9.08629e-07 -6.07325e-06
7.35858e-06 -6.96709e-06 -2.04419e-07
1.01847e-05 2.20093e-05 5.22785e-06
0.0 0.0 -5.1365e-06
1.7781e-05 5.01565e-05 3.9079e-05
-3.93816e-06 4.34641e-06 1.9027e-06
0.0 0.0 -5.1365e-06
0.0 0.0 -5.1365e-06
-1.34996e-19 3.21873e-20 -5.80218e-20
-7.19185e-06 1.42197e-05 -4.24383e-05
-0.000120127 4.55125e-05 -0.000132637
0.0 0.0 -5.1365e-06
-0.0352836 0.327974 0.398448
5.81453e-07 3.89334e-07 -4.87596e-06
-1.25896e-05 -2.65375e-06 -5.23118e-06
0.0 0.0 -5.1365e-06
-7.19888e-06 -4.32515e-06 7.30338e-06
0.0 0.0 -5.1365e-06
0.0 0.0 -5.1365e-06
0.0 0.0 -5.1365e-06
0.00389776 0.00228255 -0.0103344
4.85423e-06 -1.95926e-06 3.08568e-05
-8.25769e-07 0.000519258 0.000170703
-1.30372e-07 9.96233e-07 -4.42832e-06
-0.00175509 -0.00319519 -0.000920105
-0.000206987 2.85411e-05 -1.57868e-05
-1.44861e-06 1.27651e-05 1.05362e-05
0.0 0.0 -5.1365e-06
1.03427e-06 -3.85476e-06 -4.76022e-06
-1.49441e-07 7.22187e-07 9.24653e-09
0.0 0.0 -5.1365e-06
-0.00220998 0.000155804 -0.000371359
-2.26247e-08 -4.12703e-09 -5.16788e-06
-4.75007e-06 -6.64002e-06 4.90659e-06
-4.70317e-07 2.72216e-07 -4.81589e-06
0.0 0.0 -5.1365e-06
3.66198e-05 -3.23771e-05 3.03789e-05
-4.01807e-06 2.46271e-06 -3.2502e-06
0.00227112 -0.000192061 0.00306284
-6.10288e-06 -1.3523e-05 -7.93342e-07
-0.000549636 0.00265849 0.001621
9.13301e-06 -1.77096e-05 1.3346e-05
0.0 0.0 -5.1365e-06
0.0 0.0 -5.1365e-06
0.0 0.0 -5.1365e-06
-3.98265e-06 1.78468e-06 3.4694e-06
-4.03557e-07 -1.23721e-06 1.68153e-07
-0.000260713 -0.00159993 -0.00285595
-2.67961e-06 4.65972e-06 6.82138e-06
-8.96385e-06 -9.92814e-06 3.89161e-05
-4.86992e-06 -5.53216e-07 -6.21667e-06
-0.000584711 -0.000477183 -0.000407917
0.0 0.0 -5.1365e-06
1.49875e-05 1.0111e-05 4.71089e-08
3.64366e-06 1.00419e-05 -1.77414e-07
4.964e-05 0.000253324 -0.000486511
-4.07586e-05 -0.000100872 3.73668e-05
-1.38932e-07 2.08377e-06 -5.90156e-08
4.12441e-05 -7.54953e-05 5.70782e-05
0.00325755 0.00067552 -2.37286e-05
-3.99703e-06 2.37589e-06 2.96762e-06
-1.05262e-05 4.8374e-05 2.73229e-05
0.0 0.0 -5.1365e-06
-4.17158e-06 1.77778e-06 -4.02569e-06
0.00022747 -3.01053e-05 2.20273e-05
0.0 0.0 -5.1365e-06
