# vtk DataFile Version 3.0
LIGGGHTS particles timestep 400000
ASCII
DATASET POLYDATA
POINTS 98 float
0.0224902 0.020541 0.0156987
0.0224019 0.0230861 0.0155997
0.0232648 0.023469 0.0152638
0.0190504 0.0150002 0.0133688
0.0223195 0.0238131 0.0148315
0.0226374 0.0221439 0.0158424
0.0148111 0.0141342 0.0160741
0.02358 0.0189786 0.0166504
0.0193122 0.0141772 0.012676
0.0247688 0.0206234 0.0169737
0.0223483 0.0233067 0.0167644
0.0240132 0.0198761 0.0169307
0.0222393 0.0232088 0.0130983
0.0216999 0.0230639 0.0148466
0.0202153 0.0140326 0.0130795
0.0207925 0.0235184 0.0150842
0.0214991 0.0233717 0.0124725
0.0227026 0.0229087 0.0146494
0.0230291 0.0219343 0.014931
0.0229203 0.0186104 0.0159944
0.0222652 0.0214141 0.0152657
0.0174305 0.0224978 0.0143067
0.0209454 0.0238997 0.0140333
0.0193939 0.0220778 0.0158658
0.0258936 0.0188074 0.016748
0.0241065 0.017317 0.0156552
0.0191188 0.024011 0.014531
0.0199762 0.0233851 0.0144738
0.0184615 0.0139727 0.0131601
0.0176721 0.0240059 0.0131346
0.0199463 0.0231869 0.0161464
0.0180947 0.0151663 0.0136676
0.0244897 0.0202008 0.016111
0.0249153 0.0183318 0.0167367
0.0238981 0.0181635 0.016162
0.0177116 0.0234393 0.0140952
0.0236898 0.0196379 0.0159034
0.0204815 0.0221776 0.0159485
0.017014 0.0230142 0.0135101
0.024598 0.0192223 0.0163957
0.0180429 0.0200091 0.0180404
0.020477 0.0248018 0.0151432
0.0168487 0.0240706 0.0138792
0.0185082 0.0243233 0.013805
0.0240745 0.0217992 0.0149931
0.0229431 0.0175865 0.016732
0.0219266 0.0221168 0.0166632
0.0251768 0.0193075 0.0172357
0.018817 0.0146254 0.0119321
0.0207014 0.0145205 0.0142527
0.0214017 0.0233466 0.0160407
0.0143007 0.0227421 0.0152942
0.0219791 0.0238031 0.0138625
0.0159954 0.0236805 0.0143162
0.0236538 0.0226718 0.0147494
0.0190825 0.0236046 0.0154631
0.0229604 0.0229147 0.0136941
0.0220475 0.0221741 0.0146561
0.0233299 0.0167743 0.0153382
0.02415 0.0172928 0.0166619
0.0160895 0.02319 0.0131602
0.0226919 0.0195865 0.0159341
0.022822 0.0146314 0.0144008
0.0245602 0.0220892 0.0158177
0.0171954 0.0141283 0.0134831
0.023174 0.0202969 0.0164763
0.0219542 0.0143888 0.0139668
0.024994 0.0163571 0.0161684
0.025727 0.0208933 0.0168579
0.0235251 0.0159933 0.0147459
0.0192597 0.0241086 0.012938
0.0180176 0.0224695 0.0154712
0.0251411 0.0213727 0.0162039
0.0185402 0.0231989 0.0146919
0.0191476 0.024438 0.0172737
0.0193562 0.0136627 0.0135322
0.0197856 0.0145115 0.0138431
0.0242837 0.0210472 0.01562
0.0171292 0.0231861 0.0151324
0.0239313 0.0228562 0.0156912
0.0231157 0.0176607 0.0157494
0.0235517 0.0150225 0.0149847
0.0243193 0.0164883 0.0151387
0.0235951 0.021989 0.0160842
0.0219983 0.0200011 0.0173312
0.0211441 0.0141654 0.013425
0.0257825 0.0199082 0.0166617
0.0218517 0.0228086 0.0139017
0.0228809 0.0212894 0.0164341
0.0180436 0.0147797 0.0127433
0.0216549 0.022382 0.0156072
0.0199271 0.0241195 0.0137037
0.0151313 0.0231788 0.0149462
0.0232969 0.0211145 0.0154718
0.00924568 0.0174978 0.00841475
0.0250607 0.0170781 0.0154791
0.0242088 0.0213549 0.0165698
0.0251731 0.0173754 0.0164931

VERTICES 98 196
1 0
1 1
1 2
1 3
1 4
1 5
1 6
1 7
1 8
1 9
1 10
1 11
1 12
1 13
1 14
1 15
1 16
1 17
1 18
1 19
1 20
1 21
1 22
1 23
1 24
1 25
1 26
1 27
1 28
1 29
1 30
1 31
1 32
1 33
1 34
1 35
1 36
1 37
1 38
1 39
1 40
1 41
1 42
1 43
1 44
1 45
1 46
1 47
1 48
1 49
1 50
1 51
1 52
1 53
1 54
1 55
1 56
1 57
1 58
1 59
1 60
1 61
1 62
1 63
1 64
1 65
1 66
1 67
1 68
1 69
1 70
1 71
1 72
1 73
1 74
1 75
1 76
1 77
1 78
1 79
1 80
1 81
1 82
1 83
1 84
1 85
1 86
1 87
1 88
1 89
1 90
1 91
1 92
1 93
1 94
1 95
1 96
1 97

POINT_DATA 98
SCALARS id int 1
LOOKUP_TABLE default
1
2
3
5
6
7
9
10
12
13
14
17
18
21
23
26
29
35
36
38
39
40
42
45
48
49
52
53
54
57
60
62
63
64
65
66
67
68
69
70
74
75
76
79
80
82
84
85
86
87
88
90
91
92
96
97
98
100
104
105
106
108
110
111
112
114
115
119
125
126
128
131
133
135
136
143
144
148
149
152
154
158
159
165
167
168
171
172
175
176
177
178
182
184
185
186
187
190

SCALARS type int 1
LOOKUP_TABLE default
1
1
1
1
1
1
1
1
1
1
1
1
1
1
1
1
1
1
1
1
1
1
1
1
1
1
1
1
1
1
1
1
1
1
1
1
1
1
1
1
1
1
1
1
1
1
1
1
1
1
1
1
1
1
1
1
1
1
1
1
1
1
1
1
1
1
1
1
1
1
1
1
1
1
1
1
1
1
1
1
1
1
1
1
1
1
1
1
1
1
1
1
1
1
1
1
1
1

SCALARS radius float 1
LOOKUP_TABLE default
0.0005
0.0005
0.0005
0.0005
0.0005
0.0005
0.0005
0.0005
0.0005
0.0005
0.0005
0.0005
0.0005
0.0005
0.0005
0.0005
0.0005
0.0005
0.0005
0.0005
0.0005
0.0005
0.0005
0.0005
0.0005
0.0005
0.0005
0.0005
0.0005
0.0005
0.0005
0.0005
0.0005
0.0005
0.0005
0.0005
0.0005
0.0005
0.0005
0.0005
0.0005
0.0005
0.0005
0.0005
0.0005
0.0005
0.0005
0.0005
0.0005
0.0005
0.0005
0.0005
0.0005
0.0005
0.0005
0.0005
0.0005
0.0005
0.0005
0.0005
0.0005
0.0005
0.0005
0.0005
0.0005
0.0005
0.0005
0.0005
0.0005
0.0005
0.0005
0.0005
0.0005
0.0005
0.0005
0.0005
0.0005
0.0005
0.0005
0.0005
0.0005
0.0005
0.0005
0.0005
0.0005
0.0005
0.0005
0.0005
0.0005
0.0005
0.0005
0.0005
0.0005
0.0005
0.0005
0.0005
0.0005
0.0005

SCALARS mass float 1
LOOKUP_TABLE default
5.23599e-07
5.23599e-07
5.23599e-07
5.23599e-07
5.23599e-07
5.23599e-07
5.23599e-07
5.23599e-07
5.23599e-07
5.23599e-07
5.23599e-07
5.23599e-07
5.23599e-07
5.23599e-07
5.23599e-07
5.23599e-07
5.23599e-07
5.23599e-07
5.23599e-07
5.23599e-07
5.23599e-07
5.23599e-07
5.23599e-07
5.23599e-07
5.23599e-07
5.23599e-07
5.23599e-07
5.23599e-07
5.23599e-07
5.23599e-07
5.23599e-07
5.23599e-07
5.23599e-07
5.23599e-07
5.23599e-07
5.23599e-07
5.23599e-07
5.23599e-07
5.23599e-07
5.23599e-07
5.23599e-07
5.23599e-07
5.23599e-07
5.23599e-07
5.23599e-07
5.23599e-07
5.23599e-07
5.23599e-07
5.23599e-07
5.23599e-07
5.23599e-07
5.23599e-07
5.23599e-07
5.23599e-07
5.23599e-07
5.23599e-07
5.23599e-07
5.23599e-07
5.23599e-07
5.23599e-07
5.23599e-07
5.23599e-07
5.23599e-07
5.23599e-07
5.23599e-07
5.23599e-07
5.23599e-07
5.23599e-07
5.23599e-07
5.23599e-07
5.23599e-07
5.23599e-07
5.23599e-07
5.23599e-07
5.23599e-07
5.23599e-07
5.23599e-07
5.23599e-07
5.23599e-07
5.23599e-07
5.23599e-07
5.23599e-07
5.23599e-07
5.23599e-07
5.23599e-07
5.23599e-07
5.23599e-07
5.23599e-07
5.23599e-07
5.23599e-07
5.23599e-07
5.23599e-07
5.23599e-07
5.23599e-07
5.23599e-07
5.23599e-07
5.23599e-07
5.23599e-07

VECTORS velocity float
0.0163076 0.0200757 -0.000864828
0.00594653 0.00552472 0.0149001
-0.00542551 0.00475459 0.00870923
-0.000645284 -0.0215674 -0.0325675
-0.00370745 0.00162375 0.0128286
0.00650473 -0.00262663 -0.0128715
7.66358e-21 -1.17022e-19 2.0377e-20
0.0126677 0.00859739 0.0224714
-0.000190863 8.0245e-06 -0.000430977
0.00893929 -0.0129045 -0.00558972
0.0249074 -0.0302175 0.0809595
0.0111593 -0.024066 -0.0117068
0.0268374 -0.0101216 0.0326619
0.00398082 -0.000707056 0.0167518
0.0054856 -0.00288093 -0.0137449
-0.0518131 -0.0783098 0.0195941
-0.0249289 -0.00518472 0.0371317
0.00835623 0.00197628 0.0198995
0.0100072 0.00570939 -0.0017572
0.0104593 -0.00313563 0.0281546
0.00671776 0.00863869 -0.0102774
-0.00446846 0.00577365 -0.00427984
0.0451359 -0.0642114 0.0123889
-0.103779 -0.215054 0.187522
-0.00214029 0.00463544 0.0054399
0.00611465 0.0297452 -0.0312191
0.0161138 -0.181046 0.084172
0.130833 -0.0117491 0.111115
-0.000218207 -0.012215 -0.003897
-0.240462 0.191803 0.0885196
-0.0541573 -0.17292 0.190805
0.0109928 -0.000177292 0.0143913
0.0156797 -0.00998535 -0.0092723
0.000238748 0.005557 0.0087256
0.000148121 0.0247324 -0.0208107
-0.055547 -0.263632 0.256459
0.00517825 -0.00456433 0.00564757
-0.0571863 -0.203659 0.209739
0.0218079 0.0090796 -0.0143877
0.00502263 -0.00481335 -0.0432374
-0.637644 -0.619964 0.626537
1.05509e-19 -1.33021e-19 2.99065e-20
-0.146674 0.0968714 0.481836
0.0915059 -0.344744 0.167065
0.0110038 -0.00316591 0.00271857
0.00709155 -0.00617085 0.0219586
0.0406136 -0.037805 0.0369738
-0.0127112 -0.00363096 -0.0189576
-0.00465668 -0.00150441 0.00243277
0.00076098 0.0137188 -0.00360782
-0.0186429 -0.0101637 0.0527316
-0.256141 -0.536162 0.606709
-0.0168839 -0.0015222 -0.020544
-0.200091 -0.00346483 0.39766
0.00737974 -0.00143202 0.00320822
0.1943 -0.00630846 0.291675
0.0234742 -0.0166975 0.0198163
0.00676711 0.00314623 0.00268044
-0.00146087 -0.00199885 -0.00668043
0.00453725 -0.0183556 -0.0231221
0.000553744 -0.0101327 -0.00700328
0.00889092 0.00553774 0.0204238
0.000672737 -0.00357955 0.00787676
0.00392474 -0.00202468 0.00627844
0.00195177 -0.00133312 0.0026973
0.0301737 0.00845871 -0.0142529
0.00221818 0.00127762 -0.00157341
-0.0109235 -0.00677835 -0.0164708
0.00800758 0.00995224 0.0162374
0.00552679 -0.00405522 0.00421595
6.55726e-06 0.00250057 -0.00135441
-0.176315 -0.0865012 0.0542662
0.00396869 -0.0019696 0.00807492
0.20147 -0.203682 0.254443
-0.190318 0.0852257 0.279794
0.00374423 0.0066864 -0.00231466
0.0155161 0.0109328 -0.017316
0.0197617 -0.00598268 -0.00718743
-0.183752 0.016397 0.0151762
0.00490863 -0.00325478 0.000921281
0.0136548 -0.00183516 0.0209132
-0.00757616 -0.00604342 0.00137636
0.0116319 0.0105803 0.00103819
0.00865493 -0.00577039 -0.0276666
0.250654 -0.466296 0.329645
7.49509e-05 -0.000909925 0.00123628
-0.00398898 -0.0049755 0.0084382
0.0660053 -0.0228888 0.0812223
-0.00118221 -0.0048084 -0.0211952
0.00886612 0.00185708 0.0134111
0.0182271 -0.0202823 -5.87748e-05
-0.0228534 -0.0771098 -0.0357134
-0.0269095 -0.222551 0.617244
0.0133964 -0.0107512 0.0203039
0.00211566 0.00929531 -0.00192148
0.00444756 0.0172298 0.00190859
-0.00392963 -0.00840909 -0.00873146
-0.0376745 -0.0465413 0.0820001

VECTORS force float
4.99508e-06 3.72199e-06 -6.65178e-06
0.0 0.0 -5.1365e-06
0.0 0.0 -5.1365e-06
0.0 0.0 -5.1365e-06
-7.85079e-05 -0.000114875 -0.00035101
-5.89226e-06 4.35629e-06 -1.05083e-05
0.0 0.0 0.0
0.0 0.0 -5.1365e-06
-2.53505e-06 7.75407e-06 -9.59449e-06
0.0 0.0 -5.1365e-06
0.0 0.0 -5.1365e-06
0.0 0.0 -5.1365e-06
-0.00172783 -0.000596377 0.000777804
0.00069953 0.000297445 0.000545529
5.34092e-05 -3.45753e-05 -7.85943e-05
0.0 0.0 -5.1365e-06
-0.00443076 -0.00950581 0.00206183
0.000132129 -0.00011086 0.000259069
-3.79063e-05 9.09896e-05 -5.32677e-05
0.0 0.0 -5.1365e-06
-4.98233e-06 4.45279e-05 5.5895e-05
0.0 0.0 -5.1365e-06
0.0 0.0 -5.1365e-06
0.0 0.0 -5.1365e-06
0.0 0.0 -5.1365e-06
-2.71642e-05 4.80747e-05 0.000106849
0.000226523 0.000406118 0.000538651
-0.000473976 0.0015485 0.000307884
1.53804e-06 -1.24351e-06 -2.65259e-06
0.0 0.0 -5.1365e-06
0.0 0.0 -5.1365e-06
0.0 0.0 -5.1365e-06
1.1659e-06 1.38772e-06 -3.48247e-06
0.0 0.0 -5.1365e-06
0.0 0.0 -5.1365e-06
0.0 0.0 -5.1365e-06
1.43457e-05 9.87317e-06 -7.1304e-06
0.0 0.0 -5.1365e-06
0.0 0.0 -5.1365e-06
0.0 0.0 -5.1365e-06
0.0 0.0 -5.1365e-06
0.0 0.0 0.0
0.0 0.0 -5.1365e-06
-0.000226523 -0.000406118 -0.000548924
3.68955e-05 6.21143e-06 1.81678e-06
0.0 0.0 -5.1365e-06
0.0 0.0 -5.1365e-06
0.0 0.0 -5.1365e-06
-3.46005e-06 1.08143e-06 -3.15075e-06
0.0 0.0 -5.1365e-06
0.0 0.0 -5.1365e-06
0.0 0.0 -5.1365e-06
0.0 0.0 -5.1365e-06
0.0 0.0 -5.1365e-06
-6.81374e-05 2.95886e-05 -9.97966e-05
0.0 0.0 -5.1365e-06
0.00298503 0.00334902 -0.00130779
-0.000175267 -0.000221 -3.58072e-05
-2.01944e-05 6.12377e-06 9.83108e-06
0.0 0.0 -5.1365e-06
0.0 0.0 -5.1365e-06
-1.55116e-05 -1.12609e-05 -4.79665e-06
4.52624e-08 1.09152e-06 -5.35071e-06
1.5242e-06 -4.91432e-06 -9.66883e-07
1.48596e-07 1.99416e-06 -3.12155e-06
0.0 0.0 -5.1365e-06
-1.05705e-06 1.40652e-06 6.05913e-07
-1.51894e-06 -2.80626e-06 -4.16127e-06
0.0 0.0 -5.1365e-06
-1.70959e-05 -3.15219e-05 -3.84915e-05
1.62789e-06 2.33882e-07 -1.2936e-06
0.0 0.0 -5.1365e-06
0.0 0.0 -5.1365e-06
0.0 0.0 -5.1365e-06
0.0 0.0 -5.1365e-06
4.39094e-06 -4.66823e-06 -3.15481e-07
-6.0553e-05 7.47326e-05 0.000102532
0.0 0.0 -5.1365e-06
0.0 0.0 -5.1365e-06
5.76528e-05 -3.55478e-06 3.27842e-05
0.0 0.0 -5.1365e-06
0.0 0.0 -5.1365e-06
8.15306e-06 -1.97569e-05 -4.84893e-05
5.89226e-06 -4.35629e-06 2.3534e-07
0.0 0.0 -5.1365e-06
1.38922e-06 -1.45053e-06 -2.77462e-06
0.0 0.0 -5.1365e-06
0.00485035 -0.00012532 0.000545693
0.0 0.0 -5.1365e-06
-1.98542e-07 -1.01872e-06 1.39771e-06
1.40852e-05 2.41164e-05 1.33336e-05
0.0 0.0 -5.1365e-06
0.0 0.0 -5.1365e-06
0.0 0.0 -5.1365e-06
0.0 0.0 -5.1365e-06
3.03265e-05 -5.47368e-06 -1.41431e-05
0.0 0.0 -5.1365e-06
0.0 0.0 -5.1365e-06
