# vtk DataFile Version 3.0
LIGGGHTS particles timestep 180000
ASCII
DATASET POLYDATA
POINTS 133 float
0.0175762 0.0146176 0.011945
0.0202326 0.0215427 0.0152437
0.018374 0.0190235 0.0272535
0.024097 0.0127851 0.0262244
0.0205897 0.0187475 0.015946
0.0199226 0.0177392 0.0166135
0.0188583 0.02367 0.0153325
0.0148111 0.0141342 0.0160741
0.02546 0.0198041 0.0167421
0.0196333 0.0243368 0.0133637
0.0217001 0.0148065 0.0127844
0.0220152 0.0237532 0.0138148
0.0207988 0.0156918 0.0162744
0.0214079 0.0189636 0.0207097
0.0119567 0.00619485 0.0561376
0.0217611 0.0215199 0.0152239
0.0162357 0.0154481 0.0142957
0.0229249 0.0156081 0.0156269
0.021315 0.0230422 0.0137879
0.0188429 0.0186604 0.0209879
0.0160842 0.0231691 0.018039
0.0225425 0.02388 0.0146538
0.0220017 0.0154468 0.0148344
0.0272357 0.021098 0.0152689
0.0280967 0.00988304 0.0463896
0.0137336 0.0183887 0.0288686
0.0200088 0.0137341 0.0138362
0.0176059 0.0224192 0.0156126
0.023346 0.0167847 0.0173034
0.0164689 0.014501 0.0139483
0.0170354 0.0229861 0.0149585
0.0169192 0.0218044 0.0638395
0.0152009 0.0159624 0.0147065
0.0162981 0.0162445 0.0150018
0.0231611 0.0215506 0.0170389
0.0154412 0.0139667 0.0408195
0.0220802 0.0189898 0.0172417
0.0239978 0.0155993 0.0159343
0.0162574 0.0206417 0.0179825
0.0221164 0.0168359 0.0153705
0.023373 0.0149025 0.0149573
0.0164516 0.022237 0.0157191
0.0207595 0.0140655 0.0132603
0.0200594 0.00519958 0.0482649
0.0202736 0.0197112 0.0159082
0.0157062 0.0234801 0.0143135
0.0226967 0.0146401 0.0142687
0.0169427 0.018448 0.018445
0.0194277 0.0240249 0.014292
0.0164838 0.0147938 0.012941
0.0140711 0.020429 0.0329569
0.0197125 0.0223698 0.0150319
0.0190579 0.0239435 0.0126469
0.0251201 0.0168374 0.0166002
0.0164848 0.0237892 0.0137671
0.0140211 0.0222254 0.0146109
0.0204556 0.0145747 0.01434
0.0172427 0.0240372 0.013164
0.0219984 0.0190285 0.015943
0.0211477 0.015944 0.0146816
0.0155932 0.0150549 0.0135027
0.0184957 0.0148343 0.014976
0.0201583 0.0234865 0.0138267
0.016594 -0.00352226 0.0304926
0.0209091 0.016838 0.0153719
0.0162428 0.0173636 0.0302514
0.0147556 0.0226613 0.0140905
0.0194662 0.0208442 0.0168373
0.0154184 0.014648 0.0144292
0.0187908 0.0155813 0.0159389
0.0148522 0.0217254 0.0189369
0.0206794 0.0177515 0.0158671
0.0192548 0.02268 0.0158683
0.0225851 0.0177556 0.0158642
0.0244552 0.0180085 0.0167732
0.0172101 0.023517 0.0158896
0.0176844 0.0237432 0.0150265
0.0195383 0.0151638 0.0154139
0.0179379 0.0140628 0.0136286
0.0228656 0.0159182 0.0146544
0.0189833 0.0141356 0.0142444
0.0160445 0.022902 0.0150616
0.0201251 0.0233036 0.0128297
0.0208784 0.0234666 0.0119006
0.0216172 0.0181092 0.0158415
0.0205044 0.0226241 0.0141948
0.0185119 0.0169658 0.016404
0.0569968 0.0423718 0.0302296
0.0166273 0.0238754 0.0147529
0.0199143 0.0234881 0.0118713
0.0189532 0.0234747 0.0117758
0.0251649 0.0220954 0.0333927
0.0209989 0.0220287 0.0148257
0.020058 0.0206603 0.015678
0.0231971 0.0214471 0.0256122
0.0182185 0.0242122 0.0133337
0.0232541 0.0231864 0.0147632
0.0212792 0.016096 0.0171306
0.0149191 0.0232471 0.0148844
0.0218698 0.0200497 0.0158637
0.0198761 0.0235387 0.0163896
0.0212599 0.0139595 0.0144049
0.0224858 0.0150074 0.0133666
0.028267 0.023066 0.0616133
0.0139433 0.0204586 0.0165386
0.0205937 0.024108 0.0131757
0.0170996 0.0160664 0.0156912
0.0182574 0.0229314 0.0150461
0.0146168 0.0150265 0.0149668
0.0141952 0.0228005 0.01541
0.0170275 0.0149622 0.0150894
0.0239299 0.0223879 0.0155787
0.0222095 0.0227106 0.0153005
0.0185137 0.0236552 0.0141125
0.0192951 0.0232944 0.0133594
0.0227746 0.0187304 0.0179521
0.0222053 0.0145021 0.015125
0.0211124 0.0232977 0.0128436
0.0176856 0.0153251 0.0217472
0.0195113 0.0226573 0.014097
0.0101614 0.025643 0.0429108
0.0174513 0.0236364 0.0140558
0.0192856 0.0139509 0.0131695
0.0243638 0.0211213 0.0168329
0.0235182 0.0186936 0.0167918
0.017955 0.0276903 0.0272714
0.0727439 0.0549706 -0.0159464
0.0151795 0.0223098 0.0151272
0.0141617 0.0214583 0.0152368
0.0210053 0.02095 0.0155453
0.0254909 0.018118 0.0171692
0.0205759 0.0228742 0.0151605
0.0216485 0.0143633 0.0136286

VERTICES 133 266
1 0
1 1
1 2
1 3
1 4
1 5
1 6
1 7
1 8
1 9
1 10
1 11
1 12
1 13
1 14
1 15
1 16
1 17
1 18
1 19
1 20
1 21
1 22
1 23
1 24
1 25
1 26
1 27
1 28
1 29
1 30
1 31
1 32
1 33
1 34
1 35
1 36
1 37
1 38
1 39
1 40
1 41
1 42
1 43
1 44
1 45
1 46
1 47
1 48
1 49
1 50
1 51
1 52
1 53
1 54
1 55
1 56
1 57
1 58
1 59
1 60
1 61
1 62
1 63
1 64
1 65
1 66
1 67
1 68
1 69
1 70
1 71
1 72
1 73
1 74
1 75
1 76
1 77
1 78
1 79
1 80
1 81
1 82
1 83
1 84
1 85
1 86
1 87
1 88
1 89
1 90
1 91
1 92
1 93
1 94
1 95
1 96
1 97
1 98
1 99
1 100
1 101
1 102
1 103
1 104
1 105
1 106
1 107
1 108
1 109
1 110
1 111
1 112
1 113
1 114
1 115
1 116
1 117
1 118
1 119
1 120
1 121
1 122
1 123
1 124
1 125
1 126
1 127
1 128
1 129
1 130
1 131
1 132

POINT_DATA 133
SCALARS id int 1
LOOKUP_TABLE default
1
2
3
4
5
6
7
9
10
12
13
14
17
18
20
21
23
24
25
26
27
29
31
32
34
35
36
37
38
39
40
41
42
44
45
46
48
49
52
53
54
55
57
58
60
62
63
64
65
66
67
68
69
70
72
74
75
76
77
79
80
81
82
83
84
85
86
87
88
89
90
91
92
95
96
97
98
99
100
103
104
105
106
108
110
111
112
113
114
115
119
120
122
125
126
128
131
132
133
135
136
137
140
141
142
143
144
148
149
152
154
158
159
161
165
167
168
169
171
172
173
175
176
177
178
179
180
182
184
185
186
187
190

SCALARS type int 1
LOOKUP_TABLE default
1
1
1
1
1
1
1
1
1
1
1
1
1
1
1
1
1
1
1
1
1
1
1
1
1
1
1
1
1
1
1
1
1
1
1
1
1
1
1
1
1
1
1
1
1
1
1
1
1
1
1
1
1
1
1
1
1
1
1
1
1
1
1
1
1
1
1
1
1
1
1
1
1
1
1
1
1
1
1
1
1
1
1
1
1
1
1
1
1
1
1
1
1
1
1
1
1
1
1
1
1
1
1
1
1
1
1
1
1
1
1
1
1
1
1
1
1
1
1
1
1
1
1
1
1
1
1
1
1
1
1
1
1

SCALARS radius float 1
LOOKUP_TABLE default
0.0005
0.0005
0.0005
0.0005
0.0005
0.0005
0.0005
0.0005
0.0005
0.0005
0.0005
0.0005
0.0005
0.0005
0.0005
0.0005
0.0005
0.0005
0.0005
0.0005
0.0005
0.0005
0.0005
0.0005
0.0005
0.0005
0.0005
0.0005
0.0005
0.0005
0.0005
0.0005
0.0005
0.0005
0.0005
0.0005
0.0005
0.0005
0.0005
0.0005
0.0005
0.0005
0.0005
0.0005
0.0005
0.0005
0.0005
0.0005
0.0005
0.0005
0.0005
0.0005
0.0005
0.0005
0.0005
0.0005
0.0005
0.0005
0.0005
0.0005
0.0005
0.0005
0.0005
0.0005
0.0005
0.0005
0.0005
0.0005
0.0005
0.0005
0.0005
0.0005
0.0005
0.0005
0.0005
0.0005
0.0005
0.0005
0.0005
0.0005
0.0005
0.0005
0.0005
0.0005
0.0005
0.0005
0.0005
0.0005
0.0005
0.0005
0.0005
0.0005
0.0005
0.0005
0.0005
0.0005
0.0005
0.0005
0.0005
0.0005
0.0005
0.0005
0.0005
0.0005
0.0005
0.0005
0.0005
0.0005
0.0005
0.0005
0.0005
0.0005
0.0005
0.0005
0.0005
0.0005
0.0005
0.0005
0.0005
0.0005
0.0005
0.0005
0.0005
0.0005
0.0005
0.0005
0.0005
0.0005
0.0005
0.0005
0.0005
0.0005
0.0005

SCALARS mass float 1
LOOKUP_TABLE default
5.23599e-07
5.23599e-07
5.23599e-07
5.23599e-07
5.23599e-07
5.23599e-07
5.23599e-07
5.23599e-07
5.23599e-07
5.23599e-07
5.23599e-07
5.23599e-07
5.23599e-07
5.23599e-07
5.23599e-07
5.23599e-07
5.23599e-07
5.23599e-07
5.23599e-07
5.23599e-07
5.23599e-07
5.23599e-07
5.23599e-07
5.23599e-07
5.23599e-07
5.23599e-07
5.23599e-07
5.23599e-07
5.23599e-07
5.23599e-07
5.23599e-07
5.23599e-07
5.23599e-07
5.23599e-07
5.23599e-07
5.23599e-07
5.23599e-07
5.23599e-07
5.23599e-07
5.23599e-07
5.23599e-07
5.23599e-07
5.23599e-07
5.23599e-07
5.23599e-07
5.23599e-07
5.23599e-07
5.23599e-07
5.23599e-07
5.23599e-07
5.23599e-07
5.23599e-07
5.23599e-07
5.23599e-07
5.23599e-07
5.23599e-07
5.23599e-07
5.23599e-07
5.23599e-07
5.23599e-07
5.23599e-07
5.23599e-07
5.23599e-07
5.23599e-07
5.23599e-07
5.23599e-07
5.23599e-07
5.23599e-07
5.23599e-07
5.23599e-07
5.23599e-07
5.23599e-07
5.23599e-07
5.23599e-07
5.23599e-07
5.23599e-07
5.23599e-07
5.23599e-07
5.23599e-07
5.23599e-07
5.23599e-07
5.23599e-07
5.23599e-07
5.23599e-07
5.23599e-07
5.23599e-07
5.23599e-07
5.23599e-07
5.23599e-07
5.23599e-07
5.23599e-07
5.23599e-07
5.23599e-07
5.23599e-07
5.23599e-07
5.23599e-07
5.23599e-07
5.23599e-07
5.23599e-07
5.23599e-07
5.23599e-07
5.23599e-07
5.23599e-07
5.23599e-07
5.23599e-07
5.23599e-07
5.23599e-07
5.23599e-07
5.23599e-07
5.23599e-07
5.23599e-07
5.23599e-07
5.23599e-07
5.23599e-07
5.23599e-07
5.23599e-07
5.23599e-07
5.23599e-07
5.23599e-07
5.23599e-07
5.23599e-07
5.23599e-07
5.23599e-07
5.23599e-07
5.23599e-07
5.23599e-07
5.23599e-07
5.23599e-07
5.23599e-07
5.23599e-07
5.23599e-07
5.23599e-07
5.23599e-07

VECTORS velocity float
0.00410139 -0.00332318 0.00556417
0.00631592 -0.00173906 0.0075005
0.238496 0.0976778 -0.560553
0.0611514 -0.356024 0.254527
0.0161409 -0.00135794 -0.00873554
-0.0021892 0.0502508 0.0109801
-0.000170402 0.0019313 -0.00017123
7.66358e-21 1.66078e-19 -2.41101e-20
-0.00218879 0.0519802 -0.0439785
0.00960914 -0.00014947 0.00347384
0.00400648 -0.00223958 0.0110898
0.012901 -0.00210311 -0.000329619
0.283933 0.199577 0.371324
0.408265 0.0367846 -0.00454705
-0.140866 -0.367278 1.2819
0.0126418 -0.00740734 0.0129981
-0.109092 0.0635772 0.147256
0.0337531 -0.0237212 -0.0301655
0.0146128 -0.00257971 -0.00213389
0.257375 0.0790704 -0.0995092
-0.011868 -0.0916625 0.00659332
0.0188473 -0.00710828 0.0099554
0.00648043 -0.00574409 -0.0427118
0.908527 -1.89789 1.58309
0.662467 -0.494535 0.932502
0.167895 -0.0524408 -0.307544
0.011323 -0.00552907 0.00975447
-0.0114064 0.0217865 -0.00140723
0.347172 0.0536359 0.147417
-0.120294 0.0726426 0.0529693
0.00286293 0.000438646 -0.00225623
0.362413 0.708356 1.46639
0.0154892 0.0493464 0.0357503
0.0439382 0.130704 0.124003
-0.058617 0.0125774 -0.0912673
-0.262134 -0.295414 0.74635
0.086682 0.683678 0.103208
0.000567748 -0.0255967 0.00382257
-0.143859 0.194557 -0.067295
-1.0966e-05 0.00145822 0.00295841
0.01029 0.0127259 0.000251074
0.0138322 -0.0200349 -0.002667
-0.000392812 0.000185594 -0.000938981
-0.124151 -0.589684 0.991395
0.0143037 -0.0131889 0.00589106
0.00081849 0.000114961 -0.000978904
0.00696749 0.00554445 0.00648743
-0.169553 -0.386201 -0.135564
0.00642634 0.00155067 -0.0109775
-0.00042673 0.000403008 -0.0405468
0.483722 -0.207443 0.429569
0.000454151 -0.00649447 -0.00835048
0.0254242 0.0192543 0.00717741
-0.00237674 -0.00577924 0.0293063
0.00354357 0.00434252 -0.000433571
0.00399002 0.00599703 -0.0068504
0.011905 0.0262396 0.0409007
0.00150602 0.000291723 -0.000758117
-0.000137077 0.0496514 5.6735e-05
0.00788135 0.013261 0.011133
-0.0116143 0.001826 -0.00210502
0.0320458 0.199428 0.0717989
0.0173637 -0.00279277 0.0039642
0.0636907 -0.0880185 -0.822846
0.00377662 0.0342272 0.0197333
-0.86293 -0.184042 0.384298
0.00878752 0.00390759 -0.00440766
0.00381731 0.0907509 0.138886
0.0123794 -0.0133739 -0.00160078
0.0593844 0.00713659 0.173211
0.0267356 -0.121024 0.03725
0.0146154 -0.00380436 -0.0102937
-0.0437411 -0.0375894 -0.0301305
-0.000940979 0.0361622 0.0597347
0.0191649 0.0181006 -0.0261198
0.025216 0.0282485 -0.0369924
0.00090321 0.00205405 -0.000264752
0.0412772 0.182569 0.342556
0.0382648 0.189162 0.0532186
0.0172293 -0.0128115 -0.0214622
0.0684172 0.108164 0.114533
0.000790308 -0.00225901 -0.00578413
-0.0110716 0.0217591 -0.0144123
0.0202522 -0.000444324 0.0202422
1.04943e-05 0.0486091 0.0104898
0.019337 0.00186779 0.000137854
-0.0355922 0.26098 0.168868
0.231578 0.142317 -0.824057
0.0011753 5.56414e-05 -0.00122989
-0.0101564 0.0848662 -0.0245342
0.0114486 -0.00981551 0.0112091
-0.415177 -0.248155 0.466162
0.0109692 0.00274198 0.00952128
0.0143388 -0.00431517 0.00912272
0.0646647 -0.046717 0.2249
0.00184725 -0.00511979 -0.00858217
0.0123163 -0.0103404 0.00383147
0.18775 0.060937 0.371458
2.66792e-05 0.000520267 0.000673303
0.0149022 0.0508931 -0.04622
-0.0374308 -0.00160296 -0.0593862
0.000339342 -0.000122955 0.00215628
0.00908514 0.00455568 0.00439035
-0.10311 0.158315 1.41492
-0.196434 0.17945 -0.15686
0.00664247 0.00813175 0.00837919
-0.0196506 0.239984 0.256465
0.000483204 0.0051615 -0.00164062
-0.0019027 0.00233307 -0.0021995
-0.00118267 -0.00279632 6.08045e-05
-0.0200031 0.16821 0.111615
-0.0238026 0.039889 -0.0108753
-0.00265717 0.0809811 -0.0126688
0.00341913 0.00565618 -0.00736864
0.00593862 0.00968738 -0.00225645
0.164879 -0.0258471 0.0982082
0.000366248 0.00090895 0.00161354
0.00332419 0.00634851 0.0185964
0.132913 -0.284591 0.119046
0.0167863 -0.00181545 -0.0022178
0.151872 0.119678 0.790263
0.00270514 -0.000697826 -0.0037561
-0.0203903 -0.0189245 0.0309297
-0.0312037 0.069995 -0.071107
0.00102322 0.0645179 0.071396
-0.0402042 0.116465 -0.421122
0.298765 0.230438 -1.09588
-0.00519118 -0.0307709 -0.0896023
0.00412206 0.00557568 -0.00676337
0.0100147 -0.0102172 0.0103338
0.00646347 -0.0108821 -0.0232021
0.00701639 0.0112765 0.00802913
0.000368944 -0.00239324 0.00573518

VECTORS force float
-4.89709e-07 -1.74668e-11 -3.36016e-07
6.36176e-05 7.40641e-06 -2.04289e-05
0.0 0.0 -5.1365e-06
0.0 0.0 -5.1365e-06
0.0 0.0 -5.1365e-06
0.0 0.0 -5.1365e-06
3.46662e-06 -7.08352e-06 4.59367e-06
4.23516e-22 0.0 4.23516e-22
0.0 0.0 -5.1365e-06
-7.54778e-06 2.6133e-05 4.06254e-05
-1.63791e-06 3.00329e-06 -3.43465e-06
-0.000160325 -4.83552e-05 -5.08955e-05
0.0 0.0 -5.1365e-06
0.0 0.0 -5.1365e-06
0.0 0.0 -5.1365e-06
8.05899e-06 -7.62807e-06 1.85123e-05
0.0 0.0 -5.1365e-06
0.0 0.0 -5.1365e-06
-4.4349e-05 -4.47534e-05 0.000101716
0.0 0.0 -5.1365e-06
0.0 0.0 -5.1365e-06
-3.5644e-05 -5.50482e-05 -7.31785e-05
0.0 0.0 -5.1365e-06
-0.0194325 0.101687 0.115781
0.0 0.0 -5.1365e-06
0.0 0.0 -5.1365e-06
0.0 0.0 -5.1365e-06
0.0 0.0 -5.1365e-06
0.0 0.0 -5.1365e-06
0.0 0.0 -5.1365e-06
-1.66375e-05 1.92628e-06 3.32423e-06
0.0 0.0 -5.1365e-06
0.0 0.0 -5.1365e-06
0.0 0.0 -5.1365e-06
0.0 0.0 -5.1365e-06
0.0 0.0 -5.1365e-06
0.0 0.0 -5.1365e-06
0.0 0.0 -5.1365e-06
0.0 0.0 -5.1365e-06
6.96871e-08 -4.26341e-08 -3.52668e-06
0.0 0.0 -5.1365e-06
0.0 0.0 -5.1365e-06
-9.36016e-07 -6.20602e-09 1.84299e-05
0.0 0.0 -5.1365e-06
0.0 0.0 -5.1365e-06
4.51054e-06 -1.23972e-05 2.36333e-06
-3.08254e-06 8.61988e-06 5.75324e-07
0.0 0.0 -5.1365e-06
0.0 0.0 -5.1365e-06
0.0 0.0 -5.1365e-06
0.0 0.0 -5.1365e-06
-7.68353e-06 -2.12588e-05 0.00015561
-0.000661119 0.000259038 -0.000261415
0.0 0.0 -5.1365e-06
-5.64095e-06 4.39395e-05 -4.21126e-06
-5.32029e-07 6.57022e-06 -1.98828e-07
0.0 0.0 -5.1365e-06
-7.39497e-06 1.63054e-06 -3.22378e-06
1.06439e-06 -5.50676e-09 -2.36829e-07
4.53466e-07 -8.73302e-07 -1.1229e-06
0.0 0.0 -5.1365e-06
0.0 0.0 -5.1365e-06
-1.87749e-05 2.69681e-05 -1.88625e-05
0.0 0.0 -5.1365e-06
-3.75072e-07 -3.32931e-07 -1.07178e-06
0.0 0.0 -5.1365e-06
-9.64273e-08 5.5308e-08 -5.15175e-06
0.0 0.0 -5.1365e-06
0.0 0.0 -5.1365e-06
0.0 0.0 -5.1365e-06
0.0 0.0 -5.1365e-06
0.0 0.0 -5.1365e-06
0.0 0.0 -5.1365e-06
0.0 0.0 -5.1365e-06
0.0 0.0 -5.1365e-06
0.0 0.0 -5.1365e-06
2.3102e-06 5.30326e-07 -5.12413e-06
0.0 0.0 -5.1365e-06
0.0 0.0 -5.1365e-06
0.0 0.0 -5.1365e-06
0.0 0.0 -5.1365e-06
-6.89442e-06 -1.87825e-06 -2.33856e-06
-8.11423e-05 -0.000419115 0.000403345
0.00281231 0.000893421 -0.00226188
3.10921e-08 4.22333e-07 -7.08748e-07
2.73097e-05 -4.41259e-05 -9.19227e-06
0.0 0.0 -5.1365e-06
0.0 0.0 -5.1365e-06
8.54327e-06 6.90277e-06 7.28993e-06
-0.00119922 -0.000388094 0.000679571
0.00341242 -0.00726881 0.00290148
0.0 0.0 -5.1365e-06
4.67463e-05 -2.61737e-05 1.07849e-05
3.57263e-05 2.57267e-05 -1.57892e-05
0.0 0.0 -5.1365e-06
0.0 0.0 -5.1365e-06
1.69225e-05 -4.49991e-06 2.43903e-06
0.0 0.0 -5.1365e-06
1.02632e-06 -1.28246e-06 -1.53176e-06
0.0 0.0 -5.1365e-06
0.0 0.0 -5.1365e-06
8.40524e-06 5.62332e-06 -1.38607e-05
5.13197e-06 -3.25314e-06 -1.58948e-06
0.0 0.0 -5.1365e-06
0.0 0.0 -5.1365e-06
7.96218e-05 0.000166172 -0.000256516
0.0 0.0 -5.1365e-06
1.44816e-06 -3.37331e-06 -5.36506e-06
1.94629e-06 1.55204e-06 -2.66592e-06
2.00824e-06 2.60452e-06 -1.57142e-06
0.0 0.0 -5.1365e-06
0.0 0.0 -5.1365e-06
0.0 0.0 -5.1365e-06
0.0 0.0 -5.1365e-06
0.000197144 8.98805e-05 -0.000227739
0.0 0.0 -5.1365e-06
2.20982e-06 -1.0932e-06 -9.19845e-06
0.00306225 0.000417373 -0.000252064
0.0 0.0 -5.1365e-06
-2.57527e-05 2.34506e-05 -0.000138449
0.0 0.0 -5.1365e-06
3.84699e-06 1.31632e-06 3.68715e-06
0.0 0.0 -5.1365e-06
0.0 0.0 -5.1365e-06
0.0 0.0 -5.1365e-06
0.0 0.0 -5.1365e-06
0.0 0.0 -5.1365e-06
0.0 0.0 -5.1365e-06
4.00252e-07 -5.556e-07 -4.9601e-06
2.69542e-05 6.54993e-06 6.50721e-06
0.0 0.0 -5.1365e-06
0.0 0.0 -5.1365e-06
-8.68017e-06 8.88169e-06 -1.71935e-05
