# vtk DataFile Version 3.0
LIGGGHTS particles timestep 260000
ASCII
DATASET POLYDATA
POINTS 112 float
0.0235447 0.021193 0.015419
0.0207067 0.0226216 0.0165106
0.016705 0.0238114 0.0134495
0.0214088 0.0214331 0.0161712
0.0180008 0.0239867 0.0145895
0.0173093 0.0237344 0.0126953
0.0148111 0.0141342 0.0160741
0.0223941 0.0211801 0.016349
0.019112 0.0218072 0.0149951
0.0217334 0.0149278 0.0147691
0.0227199 0.0228968 0.0158379
0.0222108 0.0220353 0.0158639
0.0156741 0.02348 0.0143604
0.0195382 0.0149281 0.0131624
0.0239023 0.0185572 0.0166689
0.0242437 0.0178935 0.0157911
0.0248756 0.019154 0.0181552
0.0148499 0.0231468 0.0148186
0.0208292 0.0234948 0.0160349
0.023245 0.0206968 0.0165919
0.0245262 0.0167188 0.0153467
-0.0123181 0.0238724 0.065374
0.0200191 0.0141246 0.0127773
0.0193558 0.0146289 0.0122256
0.0188373 0.0244334 0.0137152
0.0203373 0.0219729 0.0158388
0.0232681 0.0222306 0.0150494
0.0181773 0.0213267 0.0155124
0.0175587 0.0234873 0.0117925
0.0250137 0.0196079 0.0172322
0.0195428 0.023722 0.0139004
0.0211208 0.0180053 0.0180313
0.0251981 0.0174013 0.0156244
0.0247632 0.0186155 0.0161614
0.0167762 0.014204 0.0135492
0.0180619 0.0241442 0.0131649
0.0224859 0.0145426 0.0142233
0.0199835 0.0153416 0.0139591
0.0190213 0.022555 0.0142519
0.0231948 0.0218657 0.0160769
0.0196148 0.0231884 0.0147381
0.015185 0.02572 0.0246238
0.0215025 0.0242354 0.0140654
0.0258189 0.0198666 0.0166957
0.0229013 0.0230063 0.0134699
0.0210125 0.0240154 0.0132219
0.0216275 0.0142989 0.0137577
0.0223318 0.0236827 0.0140643
0.0246901 0.0213943 0.0155043
0.0218963 0.0216822 0.0170783
0.0241337 0.0210778 0.0163023
0.0190005 0.0140195 0.0129381
0.0217241 0.0226842 0.016452
0.0188353 0.0203399 0.0175612
0.0179084 0.0227069 0.0139953
0.022393 0.0231224 0.01489
0.02054 0.0149232 0.0131472
0.0187624 0.0159238 0.0146566
0.0244324 0.0209165 0.0180733
0.0179617 0.0140647 0.013161
0.0247618 0.0206168 0.0170144
0.0172273 0.0222762 0.014551
0.0243838 0.0198289 0.0164797
0.0217811 0.0202127 0.0167355
0.0172175 0.0142747 0.0144437
0.0256491 0.0182555 0.0158708
0.0203182 0.0146126 0.0119544
0.0252532 0.0195954 0.0159194
0.0255629 0.0189354 0.0165946
0.017024 0.0231147 0.0140582
0.019583 0.0225343 0.0154939
0.0228388 0.0213555 0.0175366
0.0212682 0.0222934 0.015653
0.0185719 0.0234041 0.0140098
0.0181935 0.0221145 0.0147494
0.0193045 0.0241037 0.0129001
0.0240213 0.022728 0.0156754
0.0246973 0.0221362 0.0161839
0.0141896 0.0226205 0.0153542
0.02489 0.0162353 0.0161434
0.0212895 0.0234919 0.0147014
0.0189622 0.0153053 0.013895
0.0173923 0.0243696 0.0138994
0.0186645 0.0230818 0.0150284
0.016477 0.02321 0.0148923
0.0211946 0.0146734 0.0124323
0.0226055 0.0223816 0.01683
0.0233589 0.023289 0.0151767
0.024143 0.0219063 0.0149156
0.0206318 0.0228538 0.0151241
0.0192549 0.017098 0.0155058
0.0164759 0.0240775 0.0143771
0.0202214 0.0237483 0.015283
0.0252106 0.0212229 0.0162855
0.0215658 0.023644 0.0166938
0.0233515 0.0228034 0.0142977
0.0180695 0.0231727 0.0131573
0.0189933 0.023958 0.0146771
0.0207297 0.01397 0.0134649
0.0247472 0.0204286 0.0157352
0.0238442 0.0216888 0.0171194
0.0226622 0.023376 0.0177651
0.0201405 0.0243881 0.0135181
0.0237535 0.0202738 0.0157901
0.0257819 0.0208136 0.0169285
0.0176755 0.0230965 0.0148901
0.0205618 0.0236419 0.0140327
0.0216973 0.0232639 0.0155945
0.0154804 0.017596 0.00837679
0.026183 0.0187295 0.0173218
0.0168604 0.0224837 0.0155328
0.0232771 0.0148977 0.0147253

VERTICES 112 224
1 0
1 1
1 2
1 3
1 4
1 5
1 6
1 7
1 8
1 9
1 10
1 11
1 12
1 13
1 14
1 15
1 16
1 17
1 18
1 19
1 20
1 21
1 22
1 23
1 24
1 25
1 26
1 27
1 28
1 29
1 30
1 31
1 32
1 33
1 34
1 35
1 36
1 37
1 38
1 39
1 40
1 41
1 42
1 43
1 44
1 45
1 46
1 47
1 48
1 49
1 50
1 51
1 52
1 53
1 54
1 55
1 56
1 57
1 58
1 59
1 60
1 61
1 62
1 63
1 64
1 65
1 66
1 67
1 68
1 69
1 70
1 71
1 72
1 73
1 74
1 75
1 76
1 77
1 78
1 79
1 80
1 81
1 82
1 83
1 84
1 85
1 86
1 87
1 88
1 89
1 90
1 91
1 92
1 93
1 94
1 95
1 96
1 97
1 98
1 99
1 100
1 101
1 102
1 103
1 104
1 105
1 106
1 107
1 108
1 109
1 110
1 111

POINT_DATA 112
SCALARS id int 1
LOOKUP_TABLE default
1
2
3
5
6
7
9
10
12
13
14
17
18
21
23
24
25
26
29
35
36
37
38
39
40
42
44
45
48
49
52
53
54
57
60
62
63
64
65
66
67
68
69
70
72
74
75
76
77
79
80
81
82
84
85
86
87
88
89
90
91
92
95
96
97
98
100
103
104
105
106
108
110
111
112
114
115
119
125
126
128
131
133
135
136
137
142
143
144
148
149
152
154
158
159
161
165
167
168
169
171
172
175
176
177
178
182
184
185
186
187
190

SCALARS type int 1
LOOKUP_TABLE default
1
1
1
1
1
1
1
1
1
1
1
1
1
1
1
1
1
1
1
1
1
1
1
1
1
1
1
1
1
1
1
1
1
1
1
1
1
1
1
1
1
1
1
1
1
1
1
1
1
1
1
1
1
1
1
1
1
1
1
1
1
1
1
1
1
1
1
1
1
1
1
1
1
1
1
1
1
1
1
1
1
1
1
1
1
1
1
1
1
1
1
1
1
1
1
1
1
1
1
1
1
1
1
1
1
1
1
1
1
1
1
1

SCALARS radius float 1
LOOKUP_TABLE default
0.0005
0.0005
0.0005
0.0005
0.0005
0.0005
0.0005
0.0005
0.0005
0.0005
0.0005
0.0005
0.0005
0.0005
0.0005
0.0005
0.0005
0.0005
0.0005
0.0005
0.0005
0.0005
0.0005
0.0005
0.0005
0.0005
0.0005
0.0005
0.0005
0.0005
0.0005
0.0005
0.0005
0.0005
0.0005
0.0005
0.0005
0.0005
0.0005
0.0005
0.0005
0.0005
0.0005
0.0005
0.0005
0.0005
0.0005
0.0005
0.0005
0.0005
0.0005
0.0005
0.0005
0.0005
0.0005
0.0005
0.0005
0.0005
0.0005
0.0005
0.0005
0.0005
0.0005
0.0005
0.0005
0.0005
0.0005
0.0005
0.0005
0.0005
0.0005
0.0005
0.0005
0.0005
0.0005
0.0005
0.0005
0.0005
0.0005
0.0005
0.0005
0.0005
0.0005
0.0005
0.0005
0.0005
0.0005
0.0005
0.0005
0.0005
0.0005
0.0005
0.0005
0.0005
0.0005
0.0005
0.0005
0.0005
0.0005
0.0005
0.0005
0.0005
0.0005
0.0005
0.0005
0.0005
0.0005
0.0005
0.0005
0.0005
0.0005
0.0005

SCALARS mass float 1
LOOKUP_TABLE default
5.23599e-07
5.23599e-07
5.23599e-07
5.23599e-07
5.23599e-07
5.23599e-07
5.23599e-07
5.23599e-07
5.23599e-07
5.23599e-07
5.23599e-07
5.23599e-07
5.23599e-07
5.23599e-07
5.23599e-07
5.23599e-07
5.23599e-07
5.23599e-07
5.23599e-07
5.23599e-07
5.23599e-07
5.23599e-07
5.23599e-07
5.23599e-07
5.23599e-07
5.23599e-07
5.23599e-07
5.23599e-07
5.23599e-07
5.23599e-07
5.23599e-07
5.23599e-07
5.23599e-07
5.23599e-07
5.23599e-07
5.23599e-07
5.23599e-07
5.23599e-07
5.23599e-07
5.23599e-07
5.23599e-07
5.23599e-07
5.23599e-07
5.23599e-07
5.23599e-07
5.23599e-07
5.23599e-07
5.23599e-07
5.23599e-07
5.23599e-07
5.23599e-07
5.23599e-07
5.23599e-07
5.23599e-07
5.23599e-07
5.23599e-07
5.23599e-07
5.23599e-07
5.23599e-07
5.23599e-07
5.23599e-07
5.23599e-07
5.23599e-07
5.23599e-07
5.23599e-07
5.23599e-07
5.23599e-07
5.23599e-07
5.23599e-07
5.23599e-07
5.23599e-07
5.23599e-07
5.23599e-07
5.23599e-07
5.23599e-07
5.23599e-07
5.23599e-07
5.23599e-07
5.23599e-07
5.23599e-07
5.23599e-07
5.23599e-07
5.23599e-07
5.23599e-07
5.23599e-07
5.23599e-07
5.23599e-07
5.23599e-07
5.23599e-07
5.23599e-07
5.23599e-07
5.23599e-07
5.23599e-07
5.23599e-07
5.23599e-07
5.23599e-07
5.23599e-07
5.23599e-07
5.23599e-07
5.23599e-07
5.23599e-07
5.23599e-07
5.23599e-07
5.23599e-07
5.23599e-07
5.23599e-07
5.23599e-07
5.23599e-07
5.23599e-07
5.23599e-07
5.23599e-07
5.23599e-07

VECTORS velocity float
-0.0015305 0.0538439 -0.021865
0.000105421 -0.0117887 -0.0192376
-0.0316041 0.0397053 0.0411154
-0.018607 -0.000243107 0.000255504
0.00784892 -0.00245129 0.000425308
-0.0497328 0.0543234 0.0809383
7.84386e-20 -2.40036e-20 -2.00658e-20
-0.0091745 -0.0137583 0.00247279
0.00706557 0.00451094 -0.00801333
-0.0226953 -0.0286771 -0.0505875
-0.0134469 -0.00265156 0.00867272
-0.00607136 -0.0135923 0.00042265
0.00180614 0.00250618 -0.00313816
0.0166051 0.00202194 0.0106621
0.0031881 0.0354131 -0.00223465
0.0125534 0.0230748 0.011767
-0.0068603 -0.033838 -0.0323948
0.00281871 0.000456429 -0.00204504
0.00382011 -0.000612615 0.00468271
-0.00360388 0.0446724 -0.000467452
0.0176569 0.00104791 0.00611587
-0.223231 0.00169226 -0.284623
0.0125404 0.000586028 0.000753995
0.00890652 0.00155174 0.00670099
0.0331517 0.0117907 -0.0151372
-0.00019031 -0.0139547 -0.00470511
-0.0783408 -0.0638701 0.0746895
-0.0357926 -0.00103526 0.0392594
-0.00304069 0.05374 0.0176954
0.00300713 -0.0166142 -0.00548127
0.000659901 -0.00434433 -0.000880537
-0.129884 -0.0879338 -0.0916021
0.0355354 -0.0124665 -0.0060676
0.0424358 0.0178317 0.035328
0.00462938 -0.00306994 0.00516526
0.0234133 0.0214722 0.0378394
0.0104683 0.0021065 -0.00109723
0.016941 0.0116254 -0.0102434
0.000349813 0.00325457 -0.00335238
-0.0111674 0.0335718 -0.0158929
0.00156718 0.00267648 0.00515596
0.0786281 -0.16177 0.0108037
-0.000759635 0.000947416 0.000368779
-0.00823794 -0.0285907 0.0269078
0.0462517 0.0150688 0.0340387
0.000223479 0.00135988 -0.000988729
0.00707547 0.00613395 -0.00353601
-0.00146235 0.00279787 0.000550045
0.053878 0.0535959 -0.0534653
-0.0525872 0.000320085 -0.0383534
-0.0317715 0.0104935 -0.0271865
0.0106612 -0.00178309 0.00206968
-0.00654526 -0.00647287 -0.000162333
-0.0690615 0.0891048 -0.0131934
0.00131714 0.0222811 -0.0248204
0.00164382 0.00343973 -0.000451
0.00650302 0.00611335 5.57369e-05
0.00947573 0.00289669 0.00691138
-0.0347094 0.00612026 0.00662313
0.00248148 0.000430662 -0.000587402
-0.0333031 -0.0186998 -0.00908914
0.00992421 0.0112765 -0.0232688
-0.00954165 -0.0554779 -0.0124711
-0.0143026 0.0294694 -0.000842253
0.0307612 -0.00801294 -0.00775416
0.0201504 -0.00299871 0.00328119
0.00949133 0.000887554 -0.000795865
0.0506575 -0.0532886 0.00213962
0.0289909 0.00791217 0.0226433
-0.00496183 0.0245399 0.0167781
0.000431446 -0.00170471 0.00667135
-0.0434788 0.00289846 -0.116094
-0.00441148 -0.00746592 -0.000341697
0.00743029 0.0100268 -0.0104359
0.00975659 0.00568919 -0.0078124
0.0152902 0.00170422 0.0028014
-0.00450871 -0.00986359 -0.0215338
-0.00816102 -0.00816672 -0.000310594
-0.018183 0.0161486 -0.0118472
0.0110407 -0.00731445 0.0154929
0.00899707 -0.00753224 -0.000116472
0.00893738 -0.000480161 0.00447667
-0.0014853 0.0332673 0.0326807
0.00509132 0.00367583 0.00440252
0.000566082 -0.00290444 -0.0081233
0.0102733 0.00686931 -0.00125624
-0.0195561 -0.00621912 0.0117863
0.000112027 0.0300609 0.0378982
-0.0371531 0.0268191 -0.0464413
0.00100887 0.00813161 0.00310188
0.00015429 0.00811112 0.00867511
-0.00150248 0.00983467 0.0420914
0.000885641 -0.0053915 0.00615283
-0.126349 -0.0275502 0.0342552
-0.00269858 -0.00143612 -0.00837139
-0.0329103 0.0274377 0.0412269
-0.0181958 0.0517475 0.0239558
-0.0026847 -0.00227147 0.00133982
0.00779076 0.00356547 -0.00398444
-0.0255808 -0.0887827 0.0170905
0.0236455 -0.0217583 0.0175577
-0.0563817 0.0452504 0.0389242
0.000700848 -0.000751412 0.00191724
0.0106102 0.0527045 -0.0147412
-0.0396377 -0.0458753 0.0131895
0.00613256 0.00402879 -0.00835822
0.00548255 -0.0017321 0.000834683
0.00127866 0.00307754 -0.000706159
-0.0164898 0.0240784 -0.0132953
0.0153127 0.0343098 0.00978962
0.0156062 0.0247689 -0.00333783
0.00829512 0.0025994 0.0100317

VECTORS force float
0.0 0.0 -5.1365e-06
0.0 0.0 -5.1365e-06
-4.11514e-05 -0.00191918 -7.11169e-06
6.89947e-07 3.81634e-06 -2.18681e-06
9.63008e-05 5.13747e-05 -4.64307e-05
0.000398276 -0.0124219 0.00166466
-6.35275e-22 4.23516e-22 0.0
0.0 0.0 -5.1365e-06
4.51829e-05 -2.68791e-05 3.29962e-06
0.0 0.0 -5.1365e-06
-6.28112e-06 -3.97063e-06 -9.98508e-08
1.16696e-05 -6.75757e-07 -2.29542e-06
2.59244e-05 -6.024e-05 4.48589e-05
0.0 0.0 -5.1365e-06
0.0 0.0 -5.1365e-06
0.00010539 -0.000179736 -0.000240649
0.0 0.0 -5.1365e-06
1.5458e-06 -1.53103e-06 -2.02894e-06
-1.13337e-05 1.87499e-05 -1.09957e-05
0.0 0.0 -5.1365e-06
6.35223e-05 4.03651e-05 4.9147e-05
0.0 0.0 -5.1365e-06
-6.0249e-06 1.0704e-05 3.61676e-05
-1.07462e-05 2.49745e-05 -1.06829e-05
0.000238164 1.64902e-06 2.67256e-05
0.0 0.0 -5.1365e-06
-0.0174564 0.00778709 -0.0108737
0.0 0.0 -5.1365e-06
0.00148257 0.00360518 -0.00772867
0.0 0.0 -5.1365e-06
2.72095e-05 -3.63059e-05 -1.67018e-05
0.0 0.0 -5.1365e-06
1.62534e-05 -6.76706e-05 1.57776e-05
-0.000187844 0.000162876 -0.000261188
1.86502e-07 -5.19805e-07 9.32985e-08
-0.000236046 -0.000371153 0.000236059
-3.21703e-05 1.88216e-05 1.36807e-05
0.0 0.0 -5.1365e-06
-7.73363e-05 -7.68767e-05 -5.48305e-05
0.0 0.0 -5.1365e-06
1.28932e-05 0.00021202 9.54346e-05
0.0 0.0 -5.1365e-06
8.18949e-06 2.10516e-06 -7.22706e-06
0.00075294 -0.000532904 0.000345227
0.0147559 0.0276707 0.00103905
-1.40756e-05 1.13815e-05 -1.19441e-05
-2.07646e-06 1.32736e-06 -3.58485e-06
4.21031e-06 -1.46418e-06 -1.01144e-05
-0.00711043 -0.00134357 0.005429
0.0 0.0 -5.1365e-06
0.0 0.0 -5.1365e-06
-3.03904e-07 1.94587e-06 -2.11557e-06
2.23713e-05 3.59311e-06 1.87369e-05
0.0 0.0 -5.1365e-06
-0.000111911 0.000336136 0.000165836
-1.91221e-06 -7.44727e-07 4.8101e-06
0.0 0.0 -5.1365e-06
-2.49593e-06 -8.21921e-06 1.95237e-05
0.0 0.0 -5.1365e-06
0.0 0.0 -5.1365e-06
0.0 0.0 -5.1365e-06
4.93608e-05 0.000206995 -0.000132259
0.0 0.0 -5.1365e-06
0.0 0.0 -5.1365e-06
1.01248e-06 -1.00619e-06 -4.52232e-07
-0.000112816 -1.87213e-05 0.000153955
0.0 0.0 -5.1365e-06
0.000181389 -0.000183757 -4.91371e-05
-5.69544e-05 -0.000225795 8.04689e-07
-7.14185e-06 -2.41321e-05 0.000224671
8.38709e-06 1.74525e-05 -5.93169e-06
0.0 0.0 -5.1365e-06
-1.09502e-05 -4.07575e-06 -6.48011e-06
5.85794e-05 0.000112951 -0.00013506
-2.5215e-05 5.28254e-06 -2.40955e-05
0.00023092 -2.69609e-05 -9.66185e-05
0.0 0.0 -5.1365e-06
0.0 0.0 -5.1365e-06
3.34207e-07 2.02723e-06 -1.7806e-06
0.0 0.0 -5.1365e-06
1.10756e-05 6.86202e-06 1.06148e-05
-4.52011e-08 5.19877e-07 -5.21066e-06
-0.000425918 3.62273e-05 0.000231049
1.81708e-05 2.15767e-05 -1.99246e-05
0.0 0.0 -5.1365e-06
-1.14055e-06 6.57484e-07 -4.59202e-06
0.0 0.0 -5.1365e-06
6.28112e-06 3.97063e-06 -1.01732e-05
-0.00118341 0.00054467 0.00306238
1.3889e-05 -6.98482e-06 7.11544e-05
0.0 0.0 -5.1365e-06
-0.000262229 0.000383361 0.000557925
9.13093e-05 -0.000181649 -8.87842e-05
-0.00054152 -0.000590237 -0.000462317
3.4876e-05 -7.88796e-06 2.4765e-05
0.00662291 -0.0132324 -0.00395643
-2.03526e-05 -0.000104832 0.000355562
3.50737e-05 1.05059e-05 0.000131544
-2.77776e-07 4.4263e-08 -5.13996e-06
-0.00125104 0.00106911 -0.000307776
0.0 0.0 -5.1365e-06
0.0 0.0 -5.1365e-06
-2.79873e-05 -1.03019e-05 -1.02497e-06
0.0 0.0 -5.1365e-06
0.000654882 0.000131771 -0.000767946
3.81286e-06 7.55308e-06 -0.000148928
-8.24245e-06 5.23642e-06 -1.39367e-05
0.0 0.0 -5.1365e-06
0.0 0.0 -5.1365e-06
-0.000296242 0.000296185 2.25495e-06
-8.34704e-06 0.000106792 3.39781e-05
0.0 0.0 -5.1365e-06
