# vtk DataFile Version 3.0
LIGGGHTS particles timestep 240000
ASCII
DATASET POLYDATA
POINTS 113 float
0.0219021 0.0177123 0.0157403
0.0214663 0.0235247 0.0162295
0.0147112 0.0226497 0.0141333
0.0211901 0.0210051 0.0155725
0.0197522 0.0226218 0.0154029
0.0155774 0.0230016 0.0135457
0.0148111 0.0141342 0.0160741
0.0222159 0.0197507 0.0167874
0.0219322 0.0236846 0.0150529
0.0225676 0.0178344 0.0165896
0.0228944 0.0237562 0.0148983
0.0207377 0.02251 0.0142706
0.0150835 0.0233063 0.0147897
0.0185974 0.0149414 0.0132038
0.0228556 0.0173808 0.0157078
0.0225877 0.0151883 0.0152957
0.0236822 0.0206449 0.0175072
0.0195559 0.0241239 0.0162688
0.022346 0.0230435 0.0162435
0.0221968 0.0164686 0.015128
0.0226969 0.0150759 0.0134921
0.0191344 0.0237168 0.0154481
0.0207045 0.0140852 0.0131896
0.0182383 0.0146238 0.0119351
0.0183892 0.0242779 0.0134443
0.021369 0.020466 0.0163961
0.0217823 0.022929 0.0136734
0.0202651 0.0230752 0.0161383
0.0165349 0.0228586 0.0137887
0.0248811 0.0199871 0.016679
0.0189394 0.0236768 0.0140255
0.023682 0.0206432 0.0164996
0.0234062 0.0153555 0.0143499
0.0231474 0.0162244 0.0149358
0.01742 0.0151133 0.0152584
0.0174792 0.0240315 0.0130892
0.0228362 0.0145367 0.014576
0.0202423 0.0144415 0.0140016
0.0182108 0.0237852 0.0158253
0.0215155 0.0194993 0.0161101
0.0198709 0.021809 0.0159738
0.0209805 0.0148667 0.0164801
0.0216885 0.0240253 0.0139309
0.0256491 0.0206091 0.0165238
0.0201576 0.0234786 0.0117758
0.0202526 0.0239441 0.012641
0.0219931 0.0144022 0.014055
0.0210698 0.0234434 0.0120918
0.0226763 0.0218377 0.0149802
0.0230656 0.0214067 0.0167343
0.0222336 0.0201651 0.0158401
0.018737 0.013968 0.0130232
0.022498 0.0228752 0.0152224
0.01876 0.0228318 0.0151657
0.0175114 0.0229863 0.014946
0.0208475 0.0232202 0.0130099
0.0194196 0.0148396 0.014633
0.017219 0.014634 0.012105
0.024067 0.0214743 0.0170463
0.0177938 0.0142313 0.0128173
0.0246377 0.0209298 0.0164125
0.0210133 0.0233844 0.0153412
0.0220903 0.0186655 0.0160111
0.022928 0.0187714 0.0167671
0.0192725 0.0143214 0.0137898
0.0241471 0.0160385 0.014847
0.0197344 0.0140059 0.0129607
0.0232655 0.0198504 0.0159859
0.0237845 0.0177754 0.0157627
0.0179509 0.0223534 0.0155852
0.0217212 0.0224391 0.0156913
0.0238055 0.0216223 0.0160731
0.0224035 0.0218319 0.0160991
0.0177852 0.0236831 0.0139746
0.0188923 0.0220685 0.0158233
0.0193301 0.0241874 0.0130948
0.0235144 0.0229875 0.0149909
0.0241615 0.0224474 0.0155163
0.02073 0.0223732 0.0155521
0.022753 0.0160205 0.015841
0.0208227 0.0241617 0.0134155
0.0176365 0.0150328 0.0134641
0.00802774 0.0145631 0.0570664
0.016759 0.0239903 0.0137827
0.0201357 0.0238419 0.015493
0.0171738 0.0239028 0.0147346
0.0211498 0.013865 0.0140572
0.021379 0.0219121 0.0149094
0.0225528 0.0234876 0.0139863
0.0225115 0.0225328 0.0142771
0.0208737 0.0240165 0.014515
0.0167783 0.0148467 0.0129861
0.0159282 0.0236735 0.0143707
0.0215431 0.022897 0.0146428
0.0247836 0.0218181 0.0159669
0.0230389 0.0224252 0.0166983
0.0217938 0.0233167 0.0127544
0.0158343 0.0224641 0.0143827
0.0182886 0.0236497 0.0148377
0.0210349 0.0147356 0.0145357
0.0231419 0.0207928 0.0155887
0.0221994 0.0210936 0.0154507
0.0231863 0.0223173 0.015703
0.0198237 0.0241758 0.0139784
0.0224183 0.0157206 0.0144667
0.0253624 0.0215443 0.0167264
0.018413 0.0189154 0.0189966
0.019606 0.0232704 0.0146516
0.0205313 0.0233802 0.0139037
0.0233903 0.0191853 0.0109411
0.0255527 0.0185927 0.0167395
0.0205629 0.0239796 0.0164471
0.0248253 0.0164923 0.0160824

VERTICES 113 226
1 0
1 1
1 2
1 3
1 4
1 5
1 6
1 7
1 8
1 9
1 10
1 11
1 12
1 13
1 14
1 15
1 16
1 17
1 18
1 19
1 20
1 21
1 22
1 23
1 24
1 25
1 26
1 27
1 28
1 29
1 30
1 31
1 32
1 33
1 34
1 35
1 36
1 37
1 38
1 39
1 40
1 41
1 42
1 43
1 44
1 45
1 46
1 47
1 48
1 49
1 50
1 51
1 52
1 53
1 54
1 55
1 56
1 57
1 58
1 59
1 60
1 61
1 62
1 63
1 64
1 65
1 66
1 67
1 68
1 69
1 70
1 71
1 72
1 73
1 74
1 75
1 76
1 77
1 78
1 79
1 80
1 81
1 82
1 83
1 84
1 85
1 86
1 87
1 88
1 89
1 90
1 91
1 92
1 93
1 94
1 95
1 96
1 97
1 98
1 99
1 100
1 101
1 102
1 103
1 104
1 105
1 106
1 107
1 108
1 109
1 110
1 111
1 112

POINT_DATA 113
SCALARS id int 1
LOOKUP_TABLE default
1
2
3
5
6
7
9
10
12
13
14
17
18
21
23
24
25
26
29
35
36
37
38
39
40
42
44
45
48
49
52
53
54
57
60
62
63
64
65
66
67
68
69
70
72
74
75
76
77
79
80
81
82
84
85
86
87
88
89
90
91
92
95
96
97
98
100
103
104
105
106
108
110
111
112
114
115
119
125
126
128
131
132
133
135
136
137
142
143
144
148
149
152
154
158
159
161
165
167
168
169
171
172
175
176
177
178
182
184
185
186
187
190

SCALARS type int 1
LOOKUP_TABLE default
1
1
1
1
1
1
1
1
1
1
1
1
1
1
1
1
1
1
1
1
1
1
1
1
1
1
1
1
1
1
1
1
1
1
1
1
1
1
1
1
1
1
1
1
1
1
1
1
1
1
1
1
1
1
1
1
1
1
1
1
1
1
1
1
1
1
1
1
1
1
1
1
1
1
1
1
1
1
1
1
1
1
1
1
1
1
1
1
1
1
1
1
1
1
1
1
1
1
1
1
1
1
1
1
1
1
1
1
1
1
1
1
1

SCALARS radius float 1
LOOKUP_TABLE default
0.0005
0.0005
0.0005
0.0005
0.0005
0.0005
0.0005
0.0005
0.0005
0.0005
0.0005
0.0005
0.0005
0.0005
0.0005
0.0005
0.0005
0.0005
0.0005
0.0005
0.0005
0.0005
0.0005
0.0005
0.0005
0.0005
0.0005
0.0005
0.0005
0.0005
0.0005
0.0005
0.0005
0.0005
0.0005
0.0005
0.0005
0.0005
0.0005
0.0005
0.0005
0.0005
0.0005
0.0005
0.0005
0.0005
0.0005
0.0005
0.0005
0.0005
0.0005
0.0005
0.0005
0.0005
0.0005
0.0005
0.0005
0.0005
0.0005
0.0005
0.0005
0.0005
0.0005
0.0005
0.0005
0.0005
0.0005
0.0005
0.0005
0.0005
0.0005
0.0005
0.0005
0.0005
0.0005
0.0005
0.0005
0.0005
0.0005
0.0005
0.0005
0.0005
0.0005
0.0005
0.0005
0.0005
0.0005
0.0005
0.0005
0.0005
0.0005
0.0005
0.0005
0.0005
0.0005
0.0005
0.0005
0.0005
0.0005
0.0005
0.0005
0.0005
0.0005
0.0005
0.0005
0.0005
0.0005
0.0005
0.0005
0.0005
0.0005
0.0005
0.0005

SCALARS mass float 1
LOOKUP_TABLE default
5.23599e-07
5.23599e-07
5.23599e-07
5.23599e-07
5.23599e-07
5.23599e-07
5.23599e-07
5.23599e-07
5.23599e-07
5.23599e-07
5.23599e-07
5.23599e-07
5.23599e-07
5.23599e-07
5.23599e-07
5.23599e-07
5.23599e-07
5.23599e-07
5.23599e-07
5.23599e-07
5.23599e-07
5.23599e-07
5.23599e-07
5.23599e-07
5.23599e-07
5.23599e-07
5.23599e-07
5.23599e-07
5.23599e-07
5.23599e-07
5.23599e-07
5.23599e-07
5.23599e-07
5.23599e-07
5.23599e-07
5.23599e-07
5.23599e-07
5.23599e-07
5.23599e-07
5.23599e-07
5.23599e-07
5.23599e-07
5.23599e-07
5.23599e-07
5.23599e-07
5.23599e-07
5.23599e-07
5.23599e-07
5.23599e-07
5.23599e-07
5.23599e-07
5.23599e-07
5.23599e-07
5.23599e-07
5.23599e-07
5.23599e-07
5.23599e-07
5.23599e-07
5.23599e-07
5.23599e-07
5.23599e-07
5.23599e-07
5.23599e-07
5.23599e-07
5.23599e-07
5.23599e-07
5.23599e-07
5.23599e-07
5.23599e-07
5.23599e-07
5.23599e-07
5.23599e-07
5.23599e-07
5.23599e-07
5.23599e-07
5.23599e-07
5.23599e-07
5.23599e-07
5.23599e-07
5.23599e-07
5.23599e-07
5.23599e-07
5.23599e-07
5.23599e-07
5.23599e-07
5.23599e-07
5.23599e-07
5.23599e-07
5.23599e-07
5.23599e-07
5.23599e-07
5.23599e-07
5.23599e-07
5.23599e-07
5.23599e-07
5.23599e-07
5.23599e-07
5.23599e-07
5.23599e-07
5.23599e-07
5.23599e-07
5.23599e-07
5.23599e-07
5.23599e-07
5.23599e-07
5.23599e-07
5.23599e-07
5.23599e-07
5.23599e-07
5.23599e-07
5.23599e-07
5.23599e-07
5.23599e-07

VECTORS velocity float
0.0140462 -0.00793979 -0.0031634
5.42659e-05 -0.00239949 -0.00653317
0.00755324 0.00133177 -0.00756372
-0.00466307 -0.0705849 0.0499561
0.00357674 0.00609261 -0.0254791
-0.0132655 0.0105208 -0.0168178
1.65391e-19 6.49707e-20 4.66649e-20
-0.00725362 0.0176651 0.0164
0.000464153 -0.00479792 0.00908002
0.0170286 -0.0110935 -0.00800298
0.000706677 -0.000246103 0.00103317
0.0095555 0.00316741 -0.00904148
0.00707321 -0.000675385 -0.00507947
0.00867007 -5.43806e-05 0.00694179
0.0293129 -0.00618903 -0.00825427
0.00941745 0.00178703 0.00388593
-0.0102386 -0.0191773 -0.0178036
-0.00488377 -0.00350815 -0.00632325
-0.00084734 0.0057285 0.0080617
0.00108356 0.0162413 0.0215003
0.0136201 0.0051121 0.00556112
-0.00313845 -0.00438039 -0.00948254
-0.00168369 0.00102586 -0.00198235
-3.34374e-07 0.00159134 -0.00538581
0.00242539 -0.001347 -0.00692138
0.0212168 -0.018793 0.0664273
0.0298811 -0.0106757 0.0151679
-0.0182907 0.00571332 0.00382887
0.00073018 0.020004 -0.036014
-0.00489445 0.00273787 -0.00786241
0.0115613 0.0123987 -0.0174796
-0.0048014 0.010042 -0.00843131
-0.0242901 0.0182515 -0.0612896
0.0052589 0.0142768 0.000888358
-0.0471839 -0.0320885 -0.106144
0.000410417 0.000690793 -0.00147469
0.000528366 0.000448961 -0.00114379
0.00241292 -0.00159047 -0.00204708
-0.00392647 -0.00573515 -0.00610203
0.0151813 -0.0171362 -0.0113874
0.0142406 0.0172027 -0.00824136
-0.0439508 -0.114788 -0.186904
0.015998 -0.020675 0.022585
0.00244382 -0.00636124 0.00396886
0.0655882 0.0135859 -0.00238709
0.0132104 0.0162834 0.00450962
-0.00246258 -0.00426987 0.00378022
-0.0385209 -0.075474 0.0251072
0.0119848 -0.00496514 -0.013015
-0.00483646 0.00733303 0.00254785
0.0258385 -0.0234924 -0.0104468
0.000758299 1.04833e-05 -0.000114226
-0.00500459 -0.00645051 -0.00128424
-0.010718 -0.000704967 -0.00964999
0.00918043 0.00194696 -0.00490034
0.00733341 0.0253639 -0.00581485
0.0022822 -0.00145531 -0.00223022
0.000438918 0.00386635 -0.00740476
-0.00423761 -0.00061061 0.00350939
0.00219193 0.00268707 -0.00945657
-0.00175051 0.0174659 -0.00422158
-0.0129436 -0.0114192 -0.0147596
0.0507102 -0.0127464 -0.00338741
0.0135414 -0.00852592 0.0405866
0.00182169 0.000445792 -0.000944268
0.00146627 0.0209228 -0.0191426
-0.000189482 0.00257303 -0.00455028
0.00983291 0.0322255 0.0100178
6.22335e-06 0.0398713 0.0109832
0.0224421 0.00673231 -0.00632328
0.000702311 0.00908569 -0.00555479
0.00302555 -0.000962147 -0.00090545
0.00369732 -0.008067 -0.00252967
0.00298616 0.0035915 -0.000759531
0.00171564 -0.0051845 -0.00102179
-0.0127817 -0.0268619 -0.0271869
0.000313762 -0.00165178 0.000770744
-0.000240558 -0.00565584 0.000335058
-0.00864959 -0.00200219 0.0110682
-0.00291382 -0.00192804 0.00240537
0.0366859 0.00548132 0.0127869
0.0089573 0.00435436 0.00420326
-2.70129 -0.735571 6.88363
-0.00242812 -0.0062674 -0.00506764
-0.000950584 -0.00527894 -0.0101137
-0.000197175 -0.000621912 -0.00187885
-0.00383537 -0.00273012 0.000541293
-0.00147509 -0.00183445 0.00229772
0.00802668 0.00344559 0.0172167
0.0034401 -0.014142 0.00854194
-0.0219355 -0.0104003 0.0232231
0.0101198 0.00495597 0.00423593
0.00572437 -0.00201938 -0.0075004
0.00577743 0.00178733 0.00427839
0.00296233 -0.00597152 -0.00117468
0.00109436 -0.00280694 0.00148801
0.0215024 -0.103419 -0.0275466
0.0361158 -0.00423827 -0.0212613
0.00720544 0.00503597 -0.00264999
0.00281436 0.0043963 -0.0112008
-0.00215436 0.0339468 -0.0164653
-0.0190797 0.00985188 -0.00285325
0.00162944 -0.00546861 -0.00363047
0.0141743 0.0222837 -0.0451216
0.0109803 0.00908568 0.00956131
0.0036121 -0.00605926 -7.63516e-05
-0.0120702 0.0321267 0.241367
0.0171261 0.0155808 -0.0193368
0.0243482 -0.00109614 0.0210755
-0.0604048 0.0467415 -0.295423
0.01343 0.0303644 0.0225068
-0.00971421 -0.00701732 -0.0078622
-0.00115107 -0.0129267 -0.00896812

VECTORS force float
0.0 0.0 -5.1365e-06
0.0 0.0 -5.1365e-06
2.18089e-06 -4.34201e-06 7.6609e-08
0.0 0.0 -5.1365e-06
0.0 0.0 -5.1365e-06
-0.000192926 3.14961e-05 -2.75408e-05
4.23516e-22 4.23516e-22 -6.35275e-22
0.0 0.0 -5.1365e-06
-8.13621e-05 -0.000102539 -0.000183544
0.0 0.0 -5.1365e-06
8.16163e-05 5.71893e-05 8.00398e-05
0.00492326 0.00643101 0.0113151
0.0 0.0 -5.1365e-06
1.07604e-06 1.11151e-07 2.4318e-06
0.0 0.0 -5.1365e-06
9.89522e-06 -3.52669e-06 8.24805e-06
0.0 0.0 -5.1365e-06
0.0 0.0 -5.1365e-06
0.0 0.0 -5.1365e-06
-4.29376e-07 -6.41869e-06 6.94449e-05
0.0 0.0 -5.1365e-06
-9.64371e-07 -5.58911e-07 -4.83989e-06
4.16583e-06 -4.48826e-06 -3.15123e-06
1.94876e-08 -1.90406e-05 5.69096e-06
-1.20997e-05 -2.93339e-05 2.10045e-05
0.0 0.0 -5.1365e-06
0.000124862 -0.000336349 0.000141069
0.0 0.0 -5.1365e-06
0.000207101 1.93654e-05 -8.85671e-06
0.0 0.0 -5.1365e-06
0.0 0.0 -5.1365e-06
-1.82623e-07 9.35071e-06 6.54448e-06
-1.30654e-06 8.13621e-07 -3.10397e-06
-3.41643e-06 -6.68971e-06 1.74618e-05
0.0 0.0 -5.1365e-06
2.78234e-07 -7.17141e-06 1.16596e-05
-1.32391e-05 8.94491e-06 6.59437e-06
-2.13013e-06 -8.16109e-06 1.22437e-05
5.59183e-06 1.53334e-06 3.02132e-06
0.0 0.0 -5.1365e-06
0.0 0.0 -5.1365e-06
0.0 0.0 -5.1365e-06
0.0 0.0 -5.1365e-06
-7.34287e-06 -2.67922e-07 5.88856e-07
-0.00480487 0.00775159 0.000539739
0.00232223 0.000204724 0.00031866
3.50404e-06 1.76924e-08 -1.02728e-06
-0.00157914 -0.0126763 -0.000905541
0.0 0.0 -5.1365e-06
0.0 0.0 -5.1365e-06
0.0 0.0 -5.1365e-06
2.16035e-06 2.03507e-06 1.15136e-06
0.0 0.0 -5.1365e-06
5.29845e-05 -2.88982e-05 1.87012e-06
8.66298e-06 -3.62595e-06 2.90045e-06
-0.0105724 -0.0110659 -0.00297269
-1.15492e-07 -1.42524e-06 -2.31628e-06
1.13912e-06 1.44545e-06 -2.97608e-06
0.0 0.0 -5.1365e-06
9.98013e-07 2.52858e-06 -1.98334e-06
0.0 0.0 -5.1365e-06
0.0 0.0 -5.1365e-06
0.0 0.0 -5.1365e-06
0.0 0.0 -5.1365e-06
2.19695e-06 -5.57528e-07 4.73762e-06
0.0 0.0 -5.1365e-06
-3.21012e-06 1.53552e-07 -2.29178e-06
0.0 0.0 -5.1365e-06
-2.06029e-08 1.10661e-07 -9.11988e-08
0.0 0.0 -5.1365e-06
0.0 0.0 -5.1365e-06
-6.34219e-08 1.77306e-05 8.87166e-06
0.0 0.0 -5.1365e-06
6.36127e-06 -2.39005e-06 5.67991e-06
0.0 0.0 -5.1365e-06
0.0 0.0 -5.1365e-06
3.07406e-05 1.08031e-05 -1.454e-05
-2.806e-05 5.93429e-05 5.52372e-05
0.0 0.0 -5.1365e-06
0.0 0.0 -5.1365e-06
-0.00277449 -0.00245056 -0.0156344
-1.45185e-06 6.0375e-07 4.40458e-07
0.0 0.0 -5.1365e-06
0.0 0.0 -5.1365e-06
0.0 0.0 -5.1365e-06
2.3864e-06 -6.68173e-06 -2.9448e-07
1.49487e-06 -2.12877e-06 1.8095e-06
0.0 0.0 -5.1365e-06
-6.69695e-05 -3.86545e-05 -6.20437e-05
-9.8071e-06 -5.19954e-05 5.23958e-05
0.00632165 0.00836655 -0.011996
-3.63455e-06 -6.01224e-07 -1.85839e-06
0.0 0.0 -5.1365e-06
-0.0011459 0.00230845 -0.00165744
2.46875e-05 3.618e-05 3.43821e-05
0.0 0.0 -5.1365e-06
-0.0031532 -0.00231387 -0.000524856
-9.91587e-06 -6.55487e-06 2.4141e-05
-5.73296e-05 2.12412e-05 -1.13102e-05
0.0 0.0 -5.1365e-06
7.43402e-05 -3.04354e-05 2.05227e-05
-7.43402e-05 3.04354e-05 -3.07957e-05
0.0 0.0 -5.1365e-06
0.0 0.0 -5.1365e-06
-7.81423e-06 4.60797e-06 -1.72291e-05
1.92156e-05 -3.93447e-06 8.54401e-06
0.0 0.0 -5.1365e-06
0.0 0.0 -5.1365e-06
0.00477874 0.00735973 0.0119867
0.0 0.0 -5.1365e-06
0.0 0.0 -5.1365e-06
0.0 0.0 -5.1365e-06
0.0 0.0 -5.1365e-06
