ITEM: TIMESTEP
9000000
ITEM: NUMBER OF ATOMS
165
ITEM: BOX BOUNDS ff ff ff
-0.02 0.43
-0.02 0.09
-0.03 0.1
ITEM: ATOMS id type x y z vx vy vz fx fy fz radius mass 
2 1 0.0179584 0.0243916 0.0138171 0.003155 0.0016027 0.000627595 6.05331e-06 3.91032e-07 1.63411e-06 0.0005 1.46608e-07 
6 1 0.0219706 0.0236081 0.0143832 -0.00141203 -0.00756738 -0.0100578 7.70996e-06 3.05963e-05 5.30157e-05 0.0005 1.46608e-07 
7 1 0.0190082 0.0231122 0.0148663 0.00339457 -0.00112598 0.000280025 6.14999e-07 9.58458e-07 -2.9317e-06 0.0005 1.46608e-07 
8 1 0.0324455 0.0221408 0.0145292 0.000486585 0.0161408 -0.0142381 1.27691e-08 -1.99968e-08 -1.36306e-08 0.0005 1.46608e-07 
9 1 0.00550069 0.0060772 0.0435188 1.2373e-256 1.36981e-256 1.79684e-12 -1.06052e-258 -1.17409e-258 0 0.0005 1.46608e-07 
11 1 0.0175624 0.0142682 0.0128669 -0.000157136 3.44018e-05 -6.16093e-05 6.319e-07 5.60265e-07 -1.51554e-07 0.0005 1.46608e-07 
13 1 0.0167143 0.014252 0.0134594 0.000337798 -0.00132378 0.00380611 2.11e-07 -2.02089e-07 -9.33586e-07 0.0005 1.46608e-07 
16 1 0.0148287 0.022694 0.0140324 0.00469646 0.00143113 -0.00382517 -4.59186e-07 1.21643e-06 -5.62764e-06 0.0005 1.46608e-07 
17 1 0.0206163 0.0241103 0.0131793 0.00177261 0.000215343 3.6248e-05 1.00565e-06 -1.58781e-06 2.25153e-06 0.0005 1.46608e-07 
21 1 0.0298643 0.0175032 0.00753043 0.000487195 -0.0142718 0.00348585 3.83201e-09 -2.4206e-08 2.12232e-08 0.0005 1.46608e-07 
23 1 0.0287326 0.0168866 0.00626921 -2.5397e-14 8.63165e-14 2.12263e-13 -7.94093e-21 4.05517e-20 -1.94818e-20 0.0005 1.46608e-07 
24 1 0.0189227 0.0242851 0.0140148 0.00209198 -0.000495181 0.000479798 2.51263e-06 4.35045e-07 -1.88935e-06 0.0005 1.46608e-07 
26 1 0.0198189 0.024474 0.0136562 0.00114492 9.09371e-05 -0.000688441 1.18768e-06 -6.04482e-07 -2.99609e-07 0.0005 1.46608e-07 
27 1 0.022903 0.0148503 0.0105555 0.000171604 -0.00585004 0.0244591 -1.93383e-09 1.23666e-08 1.23825e-08 0.0005 1.46608e-07 
28 1 0.103009 0.0215368 0.00628499 -8.57941e-15 7.31798e-14 -1.96603e-13 2.66683e-21 -1.27584e-20 6.56451e-21 0.0005 1.46608e-07 
29 1 0.0237781 0.0159539 0.0147029 -0.000162683 0.00844229 0.00973219 1.20133e-08 -5.90249e-08 -2.98652e-08 0.0005 1.46608e-07 
30 1 0.0154163 0.0204112 0.0157741 0.0573858 -0.0367978 -0.0118845 0 0 -1.43822e-06 0.0005 1.46608e-07 
31 1 0.0194207 0.0210328 0.0163797 -6.47463e-05 0.0305651 -0.0121495 1.2176e-09 -8.30328e-09 -1.40047e-06 0.0005 1.46608e-07 
33 1 0.0413655 0.0203437 0.00598829 -1.85692e-15 -1.68554e-14 6.31227e-14 1.5776e-20 -2.48816e-21 4.23516e-22 0.0005 1.46608e-07 
35 1 0.024809 0.0214779 0.00812672 8.85499e-05 -0.0204975 -0.0147149 -6.31609e-10 -1.45955e-08 9.40127e-09 0.0005 1.46608e-07 
37 1 0.0337833 0.0166659 0.0150868 0.00123119 0.0171545 0.0103832 -3.95566e-09 3.53621e-08 -1.22367e-08 0.0005 1.46608e-07 
38 1 0.0192488 0.0203072 0.0156916 0.0219075 -0.317537 -0.171935 -0.00995159 0.0868844 0.220489 0.0005 1.46608e-07 
39 1 0.031758 0.0233703 0.0117156 0.00030868 0.00117183 -0.0240534 -7.08169e-09 -5.48608e-08 -1.15e-08 0.0005 1.46608e-07 
41 1 0.0199488 0.0148676 0.0147287 -0.000398658 0.00366167 -0.00239735 1.10387e-07 4.93643e-08 6.71043e-07 0.0005 1.46608e-07 
42 1 0.0283289 0.0151409 0.01313 0.606128 1.1751 -0.412887 0.378825 0.60679 -0.192048 0.0005 1.46608e-07 
43 1 0.000372837 0.0168738 0.0435188 9.69542e-317 9.69279e-317 2.67039e-12 0 0 0 0.0005 1.46608e-07 
45 1 0.033113 0.0195378 0.0157811 0.00127015 0.017154 -0.00331849 6.3546e-09 1.97355e-08 -1.83897e-08 0.0005 1.46608e-07 
46 1 0.0162925 0.0226638 0.0140928 0.00468985 0.00125806 -0.00433232 7.27613e-07 -1.0175e-06 -8.47948e-07 0.0005 1.46608e-07 
50 1 0.0327766 0.0207337 0.0154034 0.000219205 0.0227433 -0.00984919 -1.37312e-09 7.61745e-10 -1.71262e-08 0.0005 1.46608e-07 
51 1 0.0155522 0.0229931 0.0135069 0.00509516 0.00203429 -0.00410539 5.2734e-06 2.13126e-06 -4.31282e-06 0.0005 1.46608e-07 
52 1 0.0213706 0.022583 0.0142515 -0.014423 -0.0230428 -0.0254996 0 0 -1.43822e-06 0.0005 1.46608e-07 
53 1 0.0471153 0.0194898 0.00590197 -3.76712e-15 8.10328e-15 8.41354e-14 -1.4426e-21 -5.02926e-22 0 0.0005 1.46608e-07 
57 1 0.0166465 0.0211984 0.0153876 0.00420246 0.00291986 -0.00184498 -3.5995e-07 -2.97878e-06 9.76114e-07 0.0005 1.46608e-07 
62 1 0.043098 0.018187 0.00597143 -1.09747e-14 3.18855e-14 1.75225e-13 4.49325e-20 1.6623e-20 0 0.0005 1.46608e-07 
63 1 0.0222308 0.0153209 0.0139415 0.0017507 0.0109307 0.0159369 1.53549e-06 4.77982e-08 2.20442e-06 0.0005 1.46608e-07 
64 1 0.0161979 0.0236178 0.0138088 0.00528656 0.00195362 -0.00330249 1.54522e-06 -1.59088e-06 -4.03649e-07 0.0005 1.46608e-07 
65 1 0.0403048 0.0182839 0.00601097 9.40398e-16 -8.55653e-15 -2.1862e-14 -4.76456e-21 1.03762e-20 -4.44692e-21 0.0005 1.46608e-07 
66 1 0.0197591 0.0140016 0.0129678 0.000198126 -0.000338889 0.000287491 -9.70304e-09 1.1574e-07 -7.64315e-08 0.0005 1.46608e-07 
67 1 0.0307881 0.0214216 0.00785936 0.00123548 -0.0167226 -0.0119038 5.10839e-09 -6.36511e-09 1.60969e-08 0.0005 1.46608e-07 
70 1 0.0191256 0.0227275 0.00931794 0.000266054 -0.0126903 -0.0216066 7.5689e-09 3.83226e-08 8.81109e-08 0.0005 1.46608e-07 
73 1 0.0277354 0.0168486 0.0151271 0.000271544 0.0212448 0.0131577 -2.05093e-09 1.53393e-08 -6.97568e-09 0.0005 1.46608e-07 
76 1 0.0189367 0.0219873 0.00838486 -0.000397655 -0.0172556 -0.019619 -9.24334e-10 -8.24878e-09 -3.58618e-08 0.0005 1.46608e-07 
78 1 0.0303416 0.0197405 0.00726981 0.000124441 -0.0248508 -0.00453251 -1.05353e-09 -1.14057e-08 1.33503e-08 0.0005 1.46608e-07 
79 1 0.0274955 0.0176821 0.00601231 -1.74387e-14 -2.813e-15 2.84317e-13 -3.97047e-23 -3.14329e-23 0 0.0005 1.46608e-07 
82 1 0.032215 0.0227878 0.0135815 0.000543119 0.0123689 -0.0221507 -1.01518e-08 9.67571e-10 -1.68476e-08 0.0005 1.46608e-07 
83 1 0.024058 0.0182661 0.00730538 0.000468481 -0.0249523 0.00436728 -6.25538e-09 -1.21834e-08 1.58169e-08 0.0005 1.46608e-07 
84 1 0.0170673 0.0222743 0.0156334 0.000405974 0.0222069 -0.0171047 -1.96649e-07 8.18015e-07 -7.22681e-07 0.0005 1.46608e-07 
85 1 0.0198299 0.0240316 0.0125677 0.00307166 0.0011548 0.000391069 2.07771e-07 -4.98419e-07 5.76794e-07 0.0005 1.46608e-07 
90 1 0.0293438 0.0155972 0.00898221 0.00200249 -0.0108638 0.014802 7.46439e-08 -1.23753e-07 2.3514e-07 0.0005 1.46608e-07 
92 1 0.030568 0.0206933 0.00748836 0.000134036 -0.0215143 -0.00764569 2.13861e-09 -1.12239e-08 1.16279e-08 0.0005 1.46608e-07 
93 1 0.0308396 0.0203976 0.00601026 -1.40447e-15 -7.46435e-15 2.34519e-14 4.48954e-19 1.96406e-20 2.83756e-20 0.0005 1.46608e-07 
97 1 0.017346 0.0234385 0.0143598 0.00334723 -0.00352466 0.000791239 -1.51462e-06 -3.74563e-07 -2.51268e-06 0.0005 1.46608e-07 
98 1 0.0345703 0.0181398 0.00594666 -1.75e-16 -1.89258e-15 -5.6305e-15 -2.59404e-21 0 0 0.0005 1.46608e-07 
99 1 0.0141679 0.0223468 0.0158062 0.00347825 0.00194661 -0.00383078 -1.49828e-06 -2.95984e-06 2.70031e-06 0.0005 1.46608e-07 
100 1 0.0243411 0.0197601 0.00725695 -0.000652928 -0.0214224 -0.00693959 2.28897e-08 7.44665e-08 7.68625e-08 0.0005 1.46608e-07 
101 1 0.030105 0.0184165 0.00722884 0.00109815 -0.0206765 0.00360758 -4.47122e-09 -3.76111e-09 1.88719e-08 0.0005 1.46608e-07 
103 1 0.0289135 0.0178603 0.0059009 6.62087e-15 -3.27082e-16 7.76942e-14 1.74701e-21 1.78603e-19 -2.11758e-22 0.0005 1.46608e-07 
104 1 0.0145052 0.0223821 0.0148656 0.0048465 -0.00257643 -0.00329672 -5.97936e-07 4.6521e-07 -2.82303e-06 0.0005 1.46608e-07 
106 1 0.0180787 0.0138658 0.0136227 0.000181984 -6.25478e-05 -0.000208584 3.10827e-08 -1.43594e-07 2.74986e-08 0.0005 1.46608e-07 
107 1 0.021339 0.0242609 0.0140089 -0.000161862 -0.000177883 -0.000667397 3.24281e-06 -4.57712e-07 4.93467e-06 0.0005 1.46608e-07 
108 1 0.0268082 0.0207215 0.0155181 0.00167936 0.0123422 -0.00468504 1.18054e-07 -1.14222e-07 4.78832e-08 0.0005 1.46608e-07 
109 1 0.0333745 0.0196852 0.00587267 -1.35316e-15 -7.63854e-15 2.96062e-14 5.56659e-20 -4.97632e-21 1.27055e-21 0.0005 1.46608e-07 
111 1 0.0324387 0.0186054 0.00586746 2.12603e-14 8.3004e-14 2.02901e-13 -7.22625e-21 2.75286e-20 -1.05879e-20 0.0005 1.46608e-07 
113 1 0.0286475 0.0148018 0.011749 0.00116389 0.00243098 0.0200747 -9.47727e-09 1.51424e-08 3.35295e-08 0.0005 1.46608e-07 
115 1 0.0489393 0.0173506 0.00617772 -4.20612e-15 -1.50453e-14 -2.25948e-13 -1.17129e-21 5.02926e-22 0 0.0005 1.46608e-07 
116 1 0.0232257 0.0153655 0.0140297 0.00435745 0.00644078 0.000627458 4.33301e-06 1.89861e-07 6.53529e-06 0.0005 1.46608e-07 
118 1 0.0189875 0.0151783 0.0150492 -0.0013203 -0.0255163 -0.0295669 0 0 -1.43822e-06 0.0005 1.46608e-07 
120 1 0.0175485 0.0240481 0.0129378 -0.000554474 0.00318483 -0.00587736 2.42954e-06 3.28959e-07 -1.28645e-06 0.0005 1.46608e-07 
121 1 0.0152684 0.0191678 0.015958 0.0177985 -0.0508469 0.00617964 0 0 -1.43822e-06 0.0005 1.46608e-07 
123 1 0.0807469 0.0205455 0.0180588 1.6981e-14 -9.4744e-14 -5.1088e-13 -1.67818e-20 -1.27055e-21 -2.11758e-22 0.0005 1.46608e-07 
124 1 0.0315341 0.0233048 0.0105595 0.00128048 -0.00308676 -0.0214644 3.19079e-08 2.8528e-08 1.1786e-07 0.0005 1.46608e-07 
128 1 0.0175308 0.014627 0.0119294 1.14643e-06 -0.000289532 0.000478426 7.29566e-11 -2.42113e-08 4.61879e-08 0.0005 1.46608e-07 
129 1 0.027203 0.0192241 0.0158204 0.000480548 0.0235923 -0.00108053 -3.51401e-09 1.70943e-08 -1.54204e-08 0.0005 1.46608e-07 
131 1 0.0225382 0.0178641 0.0157818 0.00115333 0.0227767 0.00621367 -1.60273e-09 8.00265e-09 -1.63302e-08 0.0005 1.46608e-07 
134 1 0.0310612 0.0224169 0.00883239 0.000235164 -0.0155175 -0.0181541 -9.57848e-09 -2.48303e-08 -3.15706e-08 0.0005 1.46608e-07 
136 1 0.0167234 0.0147317 0.0125821 -0.00218229 -0.000765307 0.00367547 -6.20589e-07 -2.86241e-08 -1.2501e-07 0.0005 1.46608e-07 
140 1 0.0319432 0.0232331 0.0126425 0.00087918 0.00699796 -0.0207715 -8.75624e-09 -3.90945e-08 8.82338e-08 0.0005 1.46608e-07 
141 1 0.0295232 0.016211 0.00827252 0.000526415 -0.0189271 0.0141253 -3.03002e-08 6.66219e-08 -8.07074e-08 0.0005 1.46608e-07 
142 1 0.015744 0.0229456 0.0153646 -0.000661838 0.0081356 -0.0218936 0 0 -1.43822e-06 0.0005 1.46608e-07 
143 1 0.0242614 0.0223597 0.0155868 -0.00601388 0.00627357 -0.0027071 -1.81608e-07 1.61946e-07 -1.24941e-07 0.0005 1.46608e-07 
146 1 0.0185808 0.0241165 0.0129588 -0.00372355 -0.00201774 0.00322286 5.91211e-05 1.46887e-06 -8.62557e-07 0.0005 1.46608e-07 
149 1 0.0174974 0.0144795 0.0257685 -0.216662 0.0249207 0.123591 0 0 -1.43822e-06 0.0005 1.46608e-07 
152 1 0.0691092 0.0175584 0.00599029 6.10909e-15 -6.49662e-14 -1.7189e-13 0 1.11173e-21 -4.23516e-22 0.0005 1.46608e-07 
154 1 0.02295 0.0188702 0.0159451 2.29418e-10 0.0241228 0.000802086 -2.44229e-14 4.47795e-10 -1.88755e-08 0.0005 1.46608e-07 
155 1 0.0229042 0.0163267 0.0150147 0.00319389 0.0146233 0.0117446 1.6871e-08 5.44229e-08 -1.71956e-07 0.0005 1.46608e-07 
156 1 0.0155071 0.0222419 0.0146141 0.00534061 0.0134085 -0.0145426 -3.61916e-07 7.24634e-07 -6.49875e-07 0.0005 1.46608e-07 
158 1 0.0165702 0.0239663 0.0146298 0.00448851 -0.000694859 -0.000673214 -3.47927e-06 1.57038e-07 1.94849e-06 0.0005 1.46608e-07 
159 1 0.0209945 0.0151491 0.0150722 0.00385552 0.0013135 0.00327949 -1.3769e-07 -2.36213e-07 -1.54313e-07 0.0005 1.46608e-07 
160 1 0.0223727 0.0224507 0.0143595 0.00504108 -0.000187809 0.000978876 2.01133e-06 -1.68392e-06 -3.00582e-07 0.0005 1.46608e-07 
161 1 0.0220058 0.0159891 0.0147341 0.000627736 0.0173818 0.0167272 2.68348e-10 4.55308e-09 -2.48597e-08 0.0005 1.46608e-07 
162 1 0.0229332 0.0234171 0.0144102 -0.000156746 -0.0019517 0.000159574 3.05087e-06 -1.6531e-06 4.1157e-06 0.0005 1.46608e-07 
163 1 0.018709 0.0204715 0.00744617 -1.08911e-05 -0.0233639 -0.00859317 -2.78307e-09 -1.26434e-08 8.18464e-09 0.0005 1.46608e-07 
165 1 0.0156548 0.02368 0.0146756 0.00173083 -0.000252651 -0.0024301 -3.74623e-06 4.70296e-06 1.46565e-05 0.0005 1.46608e-07 
166 1 0.0239134 0.019485 0.00585235 -2.60197e-14 -5.3486e-14 -1.75235e-13 2.37434e-20 -2.08582e-20 2.96462e-21 0.0005 1.46608e-07 
167 1 0.0207451 0.022837 0.00949455 0.00218132 -0.0113421 -0.0210153 -1.31152e-08 3.06242e-08 1.16244e-07 0.0005 1.46608e-07 
168 1 0.0150495 0.021558 0.0151847 0.0209623 0.0244195 -0.0155757 0 0 -1.43822e-06 0.0005 1.46608e-07 
169 1 0.0314124 0.0190595 0.00570631 -1.27777e-14 4.34819e-14 1.06904e-13 1.25996e-20 -5.71747e-20 2.79521e-20 0.0005 1.46608e-07 
170 1 0.0225477 0.014483 0.0143858 -0.000332417 0.000915988 -0.00185456 4.60854e-08 -1.29214e-07 3.27149e-07 0.0005 1.46608e-07 
173 1 0.0232455 0.0222126 0.0156853 -0.00672802 0.00533419 -0.00379399 0 0 -1.43822e-06 0.0005 1.46608e-07 
176 1 0.0134752 0.0216813 0.0160841 0.00254786 0.00269366 -0.00284157 4.81818e-07 -1.26466e-06 6.04004e-07 0.0005 1.46608e-07 
177 1 0.0289369 0.0149079 0.0104304 0.000466476 -0.00735414 0.0235332 -3.76299e-08 1.6658e-08 9.07494e-08 0.0005 1.46608e-07 
178 1 0.0163056 0.0151613 0.0136496 0.00472165 0.00290568 0.00522981 9.39548e-09 2.29295e-08 3.57421e-08 0.0005 1.46608e-07 
179 1 0.0261893 0.0227418 0.0135382 0.00022557 0.0148059 -0.0223658 -5.63346e-10 -1.06424e-08 -1.10074e-08 0.0005 1.46608e-07 
180 1 0.0203678 0.0227315 0.0139581 0.00835897 -0.00317113 0.00391268 -1.21139e-06 -9.8798e-06 1.68445e-05 0.0005 1.46608e-07 
182 1 0.0256812 0.0172341 0.00627604 -3.41725e-14 -7.00658e-14 -2.29668e-13 1.40819e-20 -1.69407e-21 -1.48231e-21 0.0005 1.46608e-07 
185 1 0.0172926 0.0150848 0.0135088 0.00426193 0.000631391 0.00309056 2.51342e-08 -5.25614e-08 -9.49656e-09 0.0005 1.46608e-07 
188 1 0.020723 0.0140742 0.0132236 -0.000235361 -0.00104067 0.00236048 2.95654e-07 1.05961e-07 -2.76677e-08 0.0005 1.46608e-07 
189 1 0.0160198 0.0159356 0.0146903 0.00806798 -0.00557735 -0.00861968 1.10211e-07 -6.60862e-09 -5.48888e-07 0.0005 1.46608e-07 
190 1 0.0258016 0.00197399 0.0435188 9.68647e-317 -9.75393e-317 -2.57091e-12 0 0 0 0.0005 1.46608e-07 
191 1 0.0199947 0.014348 0.0138756 0.000251002 -0.00071509 0.000286841 6.42719e-08 2.24939e-07 9.08991e-07 0.0005 1.46608e-07 
192 1 0.0164999 0.0220064 0.0148172 0.00100291 0.000917296 -0.00132162 -4.42632e-06 -4.01542e-06 3.21619e-06 0.0005 1.46608e-07 
193 1 0.0429143 0.0204304 0.00600353 -3.48285e-16 2.93984e-15 -9.32738e-15 -5.55865e-22 -1.85288e-21 0 0.0005 1.46608e-07 
198 1 0.0190452 0.0141199 0.0136578 0.000277969 -0.000679502 7.47276e-05 3.30941e-07 -1.55472e-07 -1.08118e-07 0.0005 1.46608e-07 
200 1 0.0183 0.0236446 0.0144242 0.00302576 -0.00205759 0.000518267 1.0913e-08 1.79305e-06 -7.82476e-06 0.0005 1.46608e-07 
202 1 0.0198828 0.0227041 0.0092841 0.000618168 -0.0129605 -0.0218921 -1.43519e-08 -1.35734e-07 -2.09068e-07 0.0005 1.46608e-07 
203 1 0.0151021 0.0148005 0.0146344 0.00329426 -0.00206768 -0.00113871 -1.63809e-08 -7.55803e-09 4.30563e-08 0.0005 1.46608e-07 
205 1 0.0178595 0.0174944 0.0074779 0.000816623 -0.0214471 0.00857796 -4.86491e-09 -8.20892e-09 2.07081e-08 0.0005 1.46608e-07 
206 1 0.0194891 0.0232235 0.010408 0.0015502 -0.00561965 -0.0187485 -4.12632e-09 -2.6577e-08 -2.59542e-08 0.0005 1.46608e-07 
207 1 0.0208334 0.0144016 0.0144187 -0.00117093 0.000395495 6.21111e-05 -2.81068e-07 8.45007e-08 -3.81181e-07 0.0005 1.46608e-07 
209 1 0.0215329 0.0237127 0.0131632 0.000276726 0.000214161 0.00116794 3.99763e-07 1.04518e-06 3.52954e-06 0.0005 1.46608e-07 
212 1 0.0226135 0.0228502 0.0152441 -0.00243402 0.0129837 -5.92721e-05 0 0 -1.43822e-06 0.0005 1.46608e-07 
213 1 0.0240854 0.015386 0.0154664 -0.00289003 -0.00510903 0.000755512 -2.32485e-08 -1.50326e-08 -1.88707e-08 0.0005 1.46608e-07 
214 1 0.0206011 0.0233274 0.0125491 0.00276602 0.000577393 -0.0001126 5.1811e-07 -3.41853e-07 1.06101e-06 0.0005 1.46608e-07 
217 1 0.0148465 0.0232695 0.0149812 0.000389842 4.46869e-05 0.000233602 3.62281e-06 -3.66778e-06 -1.06828e-06 0.0005 1.46608e-07 
219 1 0.0195435 0.0239266 0.0147025 0.00205206 -0.00027015 -9.12093e-05 2.31553e-06 4.724e-07 -1.56178e-06 0.0005 1.46608e-07 
221 1 0.020246 0.0210592 0.00614048 -1.81474e-14 8.13978e-15 -1.66091e-13 2.91168e-22 -9.66147e-22 0 0.0005 1.46608e-07 
225 1 0.0187334 0.0212698 0.0077956 0.000570574 -0.0199626 -0.0116688 8.51824e-09 -2.85181e-08 8.20241e-09 0.0005 1.46608e-07 
228 1 0.0291625 0.015217 0.00954595 0.0030214 -0.00671503 0.0139044 7.06502e-08 1.44917e-07 -5.2693e-07 0.0005 1.46608e-07 
231 1 0.0227571 0.0153412 0.0149127 -0.00651349 0.019062 -0.00460059 1.16767e-07 3.96823e-08 -8.38871e-08 0.0005 1.46608e-07 
234 1 0.0679796 0.0197852 0.00574052 8.33244e-17 -2.37178e-15 8.66136e-15 1.45087e-21 -1.58819e-22 -2.11758e-22 0.0005 1.46608e-07 
235 1 0.00795985 0.0177067 0.00608549 -1.64028e-14 -6.76887e-14 -1.91481e-13 -1.3268e-19 5.70159e-20 -1.05879e-20 0.0005 1.46608e-07 
236 1 0.0166883 0.0229784 0.0149556 -0.000533728 -0.000371901 -0.000665127 -1.19893e-06 -8.72515e-07 1.4914e-06 0.0005 1.46608e-07 
238 1 0.0215567 0.0142634 0.0137423 0.000507141 -4.8617e-05 0.00137765 3.19477e-07 -2.27546e-07 1.70814e-07 0.0005 1.46608e-07 
239 1 0.0200634 0.0235939 0.0138043 0.00357823 -0.000355569 -0.00140186 1.36367e-06 -3.2523e-06 4.19503e-06 0.0005 1.46608e-07 
240 1 0.0204987 0.0240602 0.0144758 0.000867783 -5.83588e-05 -5.47583e-06 4.59253e-07 -4.70427e-07 1.36584e-06 0.0005 1.46608e-07 
241 1 0.0235758 0.0169517 0.0154138 0.000144704 0.0192959 0.0103373 -3.52919e-08 5.06117e-08 1.03024e-08 0.0005 1.46608e-07 
242 1 0.0279572 0.0160983 0.0146068 0.000651185 0.016549 0.014597 -4.32936e-09 2.83434e-08 1.41246e-09 0.0005 1.46608e-07 
244 1 0.0235997 0.0229177 0.0150691 -0.00762944 0.00660739 -0.00548636 -1.13417e-07 8.23261e-08 -4.09378e-07 0.0005 1.46608e-07 
247 1 0.0247968 0.0216034 0.016102 -5.92444e-06 0.0255938 -0.0140584 -8.5576e-10 1.28841e-09 -2.82495e-08 0.0005 1.46608e-07 
250 1 0.0258816 0.0233014 0.0123672 0.00135384 0.00384009 -0.0219545 -1.63577e-08 -1.11818e-09 -4.6553e-08 0.0005 1.46608e-07 
251 1 0.0300199 0.0197219 0.0058081 -1.71288e-14 1.62566e-16 -2.00935e-13 0 -4.96308e-24 0 0.0005 1.46608e-07 
255 1 0.0173871 0.0143552 0.014192 0.0273029 -0.00154543 -0.0213997 1.3197e-07 -5.17887e-09 -6.97123e-07 0.0005 1.46608e-07 
258 1 0.0212038 0.0216766 0.0150931 4.49256e-05 0.0204553 -0.014796 -1.47009e-08 1.30689e-07 -1.34446e-07 0.0005 1.46608e-07 
260 1 0.0213878 0.018564 0.0159162 0.000591302 0.0242844 0.0027045 -2.2719e-10 3.2181e-09 -1.92194e-08 0.0005 1.46608e-07 
262 1 0.0211528 0.0234578 0.0120679 0.000671479 0.000235136 -0.000103946 1.54653e-07 4.26651e-08 4.87939e-07 0.0005 1.46608e-07 
264 1 0.0224438 0.0217293 0.0150482 0.00596418 -0.00120329 0.00206907 1.84666e-07 -1.37023e-06 1.50236e-06 0.0005 1.46608e-07 
265 1 0.021646 0.0174318 0.0156509 0.000501894 0.0232082 0.00922928 -4.07074e-10 9.4237e-09 -1.83115e-08 0.0005 1.46608e-07 
267 1 0.0241515 0.0194999 0.016713 -7.342e-09 0.0288332 -0.00228487 -1.72034e-14 -1.63694e-09 -2.31113e-08 0.0005 1.46608e-07 
268 1 0.0312613 0.0229437 0.00958137 0.000342599 -0.0107952 -0.0209373 7.85139e-09 -6.77559e-08 -1.08456e-07 0.0005 1.46608e-07 
270 1 0.0197569 0.0220202 0.00835102 0.00015542 -0.0140237 -0.015944 9.95425e-09 -2.27444e-09 1.93774e-08 0.0005 1.46608e-07 
272 1 0.0202317 0.0234711 0.0117182 9.31818e-05 0.000211554 0.000278833 -4.39424e-08 4.04021e-08 6.05906e-07 0.0005 1.46608e-07 
275 1 0.0283456 0.0196409 0.00595076 1.82091e-14 -1.67878e-16 2.13611e-13 2.38228e-22 1.17264e-19 2.11758e-22 0.0005 1.46608e-07 
277 1 0.0220893 0.0229852 0.0135635 0.00181854 -0.000344281 0.001569 -8.42171e-07 -1.42803e-06 3.87651e-06 0.0005 1.46608e-07 
279 1 0.0182458 0.0149442 0.0132413 0.00337219 0.00102268 -0.000360031 6.82549e-09 1.55025e-07 -1.67615e-07 0.0005 1.46608e-07 
281 1 0.0185617 0.0141408 0.0127367 0.00121302 0.00241338 -0.00398462 -4.27057e-08 1.28401e-08 5.79908e-10 0.0005 1.46608e-07 
282 1 0.017002 0.0241518 0.013736 0.00506155 0.00325096 -0.00061744 3.71631e-06 -1.99202e-06 -1.26264e-06 0.0005 1.46608e-07 
284 1 0.0163319 0.0196433 0.0159028 0.0185353 0.0144704 -0.00220928 -5.57215e-07 3.92122e-07 -4.63283e-08 0.0005 1.46608e-07 
289 1 0.0206132 0.0231159 0.0148672 0.0133347 -0.000649212 0.0139129 0 0 -1.43822e-06 0.0005 1.46608e-07 
290 1 0.0274795 0.0177115 0.0155559 0.000608717 0.0243836 0.010208 4.26639e-09 1.48484e-08 -1.19789e-08 0.0005 1.46608e-07 
293 1 0.0216044 0.0230234 0.015159 0.00837303 0.0300862 -0.00507213 0 0 -1.43822e-06 0.0005 1.46608e-07 
294 1 0.0243402 0.0165284 0.00799296 0.000186416 -0.0202167 0.014349 1.49749e-05 3.09633e-05 -2.99321e-05 0.0005 1.46608e-07 
295 1 0.0199449 0.0232944 0.0129086 0.00421182 -0.0014143 -0.00316995 9.93192e-07 -8.33777e-07 2.38796e-06 0.0005 1.46608e-07 
296 1 0.0235318 0.0163573 0.00814201 0.00195835 -0.0200889 0.0153902 -0.00113296 0.000370497 -8.81095e-05 0.0005 1.46608e-07 
297 1 0.0274638 0.003903 0.0435188 9.7017e-317 -9.68243e-317 -1.69736e-12 0 0 0 0.0005 1.46608e-07 
299 1 0.0233953 0.0156915 0.00878008 -0.219096 0.0366116 -0.000560525 0.0353479 -0.00854091 0.00299896 0.0005 1.46608e-07 
