ITEM: TIMESTEP
6000000
ITEM: NUMBER OF ATOMS
208
ITEM: BOX BOUNDS ff ff ff
-0.02 0.43
-0.02 0.09
-0.03 0.1
ITEM: ATOMS id type x y z vx vy vz fx fy fz radius mass 
1 1 0.0229901 0.0178485 0.0157889 0.00667331 0.0179688 0.00273927 -9.89437e-07 1.32926e-05 1.96786e-05 0.0005 1.46608e-07 
2 1 0.0171947 0.0243475 0.0139815 -0.00118488 -0.00152079 0.00183781 1.02326e-06 1.19436e-06 -2.79821e-06 0.0005 1.46608e-07 
3 1 0.0222326 0.0236688 0.0150926 -0.000792965 -0.000476835 0.000212847 9.39036e-07 -1.70916e-07 7.04406e-07 0.0005 1.46608e-07 
4 1 0.0208446 0.0243048 0.0139612 -0.000195648 0.000997169 -0.000769362 5.09172e-07 -9.0456e-07 6.57937e-07 0.0005 1.46608e-07 
6 1 0.0184813 0.0240863 0.0129681 -9.19099e-05 0.000479081 -0.000357089 6.32175e-06 4.68718e-07 -1.14838e-06 0.0005 1.46608e-07 
7 1 0.0166952 0.0141216 0.0138248 0.00156891 -0.00181753 0.00384371 2.41018e-08 -1.31832e-07 3.58173e-08 0.0005 1.46608e-07 
8 1 0.029315 0.0147888 0.0111051 0.0744573 -0.668422 0.134256 0.468121 -0.816888 0.175094 0.0005 1.46608e-07 
9 1 0.0193876 0.0154629 0.00909899 3.41097e-05 -0.0158212 0.0209248 8.21474e-10 7.62848e-09 1.41323e-08 0.0005 1.46608e-07 
10 1 0.0190804 0.0243259 0.0139423 -9.59643e-05 -0.000565888 0.000899095 2.82293e-07 -5.08194e-08 2.49432e-07 0.0005 1.46608e-07 
11 1 0.0178798 0.0149982 0.0133236 0.00027384 0.00878144 0.0195587 -2.87671e-07 -5.05004e-07 -3.42063e-07 0.0005 1.46608e-07 
12 1 0.021353 0.0211594 0.0158558 -0.00804329 0.0128028 -0.00422833 -6.0611e-06 -5.33803e-06 7.93566e-06 0.0005 1.46608e-07 
13 1 0.0205848 0.023415 0.0170701 -0.00646853 -0.0260151 -0.0404874 0 0 -1.43822e-06 0.0005 1.46608e-07 
15 1 0.0229512 0.0223842 0.0177662 0.118231 -0.00225578 -0.00898154 0 0 -1.43822e-06 0.0005 1.46608e-07 
16 1 0.0136736 0.0219715 0.0158986 0.0128374 0.0116766 -0.0114273 0 0 -1.43822e-06 0.0005 1.46608e-07 
17 1 0.0207222 0.0240721 0.013042 -0.000563401 0.000808133 -0.000567691 -2.21477e-06 -6.79872e-07 -1.23461e-06 0.0005 1.46608e-07 
19 1 0.018136 0.0243377 0.0138752 -0.000663366 -0.00574823 0.00259742 8.1551e-07 -6.18641e-06 -1.64659e-06 0.0005 1.46608e-07 
20 1 0.0222185 0.0236601 0.0137975 -0.000665673 0.000113898 -0.000448007 2.21667e-06 -4.67546e-07 1.21663e-06 0.0005 1.46608e-07 
21 1 0.0268787 0.0222961 0.0141544 0.000206901 0.0162106 -0.0193319 -3.31245e-09 -6.37161e-09 -1.50568e-08 0.0005 1.46608e-07 
22 1 0.0155831 0.0200437 0.015839 0.0407015 -0.0544049 0.0272999 0 0 -1.43822e-06 0.0005 1.46608e-07 
23 1 0.0287326 0.0168866 0.00626921 -2.54002e-14 8.63199e-14 2.12262e-13 6.88214e-22 2.32934e-21 -1.27055e-21 0.0005 1.46608e-07 
24 1 0.0201336 0.0164772 0.00806593 0.00120574 -0.0105638 0.00880679 3.29529e-09 1.70893e-08 -2.21873e-08 0.0005 1.46608e-07 
25 1 0.0216155 0.0240946 0.0143655 -0.000397803 0.000585896 -0.000553059 9.72254e-07 -1.25577e-07 4.85151e-07 0.0005 1.46608e-07 
26 1 0.0199082 0.0241573 0.0128582 -0.00051367 -0.000140206 -0.0019718 -8.67117e-07 3.79793e-07 5.69799e-07 0.0005 1.46608e-07 
27 1 0.0160929 0.0176632 0.0157216 0.000530215 0.0235036 0.00766541 3.11919e-10 5.0893e-09 -1.94927e-08 0.0005 1.46608e-07 
28 1 0.103009 0.0215368 0.00628499 -8.47805e-15 7.31851e-14 -1.96605e-13 -5.33141e-19 -4.18223e-21 2.56227e-20 0.0005 1.46608e-07 
29 1 0.0173614 0.0240365 0.0129016 -0.000187063 -4.2203e-05 -0.000451713 1.96424e-07 6.41806e-08 -8.13005e-07 0.0005 1.46608e-07 
30 1 0.018537 0.0146232 0.0119357 -0.000742129 0.00135545 -0.00252426 2.43847e-07 2.49933e-07 2.78826e-07 0.0005 1.46608e-07 
31 1 0.0199914 0.0244329 0.0137089 -0.0006151 2.30083e-05 -0.000540654 -4.21357e-07 -2.65228e-07 1.02684e-06 0.0005 1.46608e-07 
32 1 0.0229455 0.0233961 0.014283 -0.000152176 -0.00128701 0.000251852 3.64926e-06 -3.32491e-06 3.57819e-06 0.0005 1.46608e-07 
33 1 0.0199905 0.023037 0.00991326 0.000655408 -0.00660312 -0.0190266 7.34806e-07 -4.1416e-07 -4.23622e-07 0.0005 1.46608e-07 
35 1 0.023137 0.0169223 0.0154056 0.00145573 0.0205986 0.0110662 -5.33091e-08 -6.84398e-08 -4.24383e-08 0.0005 1.46608e-07 
37 1 0.0304985 0.0181703 0.0072869 0.00100499 -0.0225141 0.0053139 -6.58101e-09 -1.55507e-08 1.01078e-08 0.0005 1.46608e-07 
38 1 0.0175338 0.0146234 0.0119355 -4.53921e-07 0.000786767 -0.00130616 8.68147e-10 -2.39563e-08 3.97768e-08 0.0005 1.46608e-07 
39 1 0.028307 0.01653 0.0149584 0.000551634 0.0192754 0.0134338 -2.38358e-10 2.53256e-08 2.85828e-09 0.0005 1.46608e-07 
41 1 0.0180488 0.0208235 0.0164474 -2.97957e-06 0.0271674 -0.0100613 -8.73658e-07 -3.17383e-05 -3.2251e-06 0.0005 1.46608e-07 
42 1 0.0240691 0.0166128 0.0152144 -0.000418525 0.015898 0.0106912 -6.69809e-09 7.48173e-08 3.86679e-08 0.0005 1.46608e-07 
43 1 0.0224266 0.016328 0.0150288 0.000635564 0.0193665 0.0146424 -2.64877e-08 -3.48431e-09 -4.48623e-08 0.0005 1.46608e-07 
45 1 0.0301867 0.0166437 0.00794283 0.00132335 -0.0198561 0.0133977 -3.17658e-08 1.01651e-08 -4.56826e-08 0.0005 1.46608e-07 
46 1 0.0239537 0.0214869 0.0161486 -0.00739269 -0.00655306 -0.0024393 0 0 -1.43822e-06 0.0005 1.46608e-07 
50 1 0.0295168 0.0149899 0.0102764 0.0290388 -0.0267753 -0.0014353 0.0114431 0.047167 0.00214368 0.0005 1.46608e-07 
51 1 0.0194145 0.0248298 0.0178987 0.111098 0.0375918 0.0583883 -2.90169e-07 -6.42011e-07 -1.38216e-06 0.0005 1.46608e-07 
52 1 0.0188096 0.019309 0.00718718 0.000435603 -0.0249934 -0.00214337 -4.45835e-09 -1.56061e-08 1.7252e-08 0.0005 1.46608e-07 
53 1 0.0471153 0.0194898 0.00590197 -3.76943e-15 8.1035e-15 8.41352e-14 2.40875e-21 -1.11173e-21 4.23516e-22 0.0005 1.46608e-07 
55 1 0.0208367 0.023109 0.0100412 0.00172184 -0.000378379 -0.00563724 -4.00076e-07 2.13538e-07 2.38867e-07 0.0005 1.46608e-07 
57 1 0.022811 0.0142732 0.0149853 2.06846e-11 7.6113e-12 7.42844e-12 5.03137e-12 1.80691e-12 1.82782e-12 0.0005 1.46608e-07 
60 1 0.0201328 0.0200532 0.0171808 0.0933755 -0.0809094 0.060041 0 0 -1.43822e-06 0.0005 1.46608e-07 
62 1 0.043098 0.018187 0.00597143 -1.10786e-14 3.18864e-14 1.75218e-13 -2.53183e-20 -7.94093e-21 -2.11758e-22 0.0005 1.46608e-07 
63 1 0.0184309 0.0138708 0.0140027 -0.0055109 0.00448651 -0.0159591 -1.19207e-06 -1.10146e-07 1.04927e-06 0.0005 1.46608e-07 
64 1 0.014418 0.023232 0.0154888 0.0113419 -0.00589152 -0.0164283 0 0 -1.43822e-06 0.0005 1.46608e-07 
65 1 0.0398391 0.0191221 0.0057054 -3.94354e-15 1.88456e-14 -9.32089e-14 -1.78472e-20 -2.32405e-20 -4.23516e-21 0.0005 1.46608e-07 
66 1 0.0156069 0.0234632 0.0179097 0.0412753 -0.027141 -0.092917 0 0 -1.43822e-06 0.0005 1.46608e-07 
67 1 0.027735 0.0190806 0.0158246 0.000690118 0.0235202 -0.000238877 -5.51903e-09 5.94229e-08 -1.22107e-09 0.0005 1.46608e-07 
70 1 0.0173956 0.021542 0.0162087 0.00201944 -0.0462106 -0.00184228 8.73659e-07 3.173e-05 1.7651e-06 0.0005 1.46608e-07 
73 1 0.0235972 0.0150891 0.00978542 0.000422805 -0.0105723 0.0199828 2.7549e-09 2.55847e-08 -1.15405e-07 0.0005 1.46608e-07 
76 1 0.0239833 0.0154452 0.0152275 0.00464552 -0.00307286 0.00280079 -1.46128e-05 -7.42842e-06 -1.05192e-05 0.0005 1.46608e-07 
77 1 0.0184271 0.0217956 0.0161139 0.0379598 -0.090315 0.0215478 0 0 -1.43822e-06 0.0005 1.46608e-07 
78 1 0.0273046 0.0208212 0.0154298 0.000273975 0.0126205 -0.00539056 -4.07395e-07 1.68223e-06 -1.39189e-06 0.0005 1.46608e-07 
79 1 0.0276983 0.0183178 0.00600486 -2.40806e-14 2.27451e-16 -2.82485e-13 0 -1.38518e-20 0 0.0005 1.46608e-07 
82 1 0.0290671 0.0147889 0.0118548 -0.248064 -0.137575 -0.0999008 0.253618 0.753811 -0.197316 0.0005 1.46608e-07 
83 1 0.0181296 0.015102 0.0148257 -0.00999737 0.00790834 0.00953557 -4.50457e-07 3.40095e-08 1.30281e-06 0.0005 1.46608e-07 
84 1 0.0228229 0.0151206 0.013586 0.00473774 0.0033817 0.00430144 -2.56972e-09 -8.82763e-09 1.54448e-08 0.0005 1.46608e-07 
85 1 0.0193185 0.024065 0.0123978 -0.000237657 -0.00481023 -0.00487221 -5.50205e-07 1.12326e-07 -1.15757e-07 0.0005 1.46608e-07 
88 1 0.0217564 0.0148892 0.0151614 0.00922122 -0.00607614 0.00573136 1.21042e-06 3.26866e-07 -5.44639e-07 0.0005 1.46608e-07 
89 1 0.0225855 0.0152089 0.0147031 -0.00154256 -0.0130844 -0.0210997 5.31662e-06 2.68405e-06 3.79265e-06 0.0005 1.46608e-07 
90 1 0.0262439 0.0233861 0.0115371 0.000583736 0.00108027 -0.0247832 -2.54127e-07 -2.36651e-08 -1.88649e-08 0.0005 1.46608e-07 
92 1 0.027468 0.0200564 0.0156918 -0.000177295 0.0157333 -0.00443687 1.69957e-06 -1.36128e-05 4.11355e-06 0.0005 1.46608e-07 
93 1 0.0210381 0.0196539 0.0178306 0.0672743 -0.106311 0.0233548 0 0 -1.43822e-06 0.0005 1.46608e-07 
97 1 0.0158312 0.0144809 0.0141774 0.000820855 -0.00165786 0.00179511 -2.0814e-08 -5.52919e-09 1.81936e-08 0.0005 1.46608e-07 
98 1 0.0345703 0.0181398 0.00594666 -1.77237e-16 -1.89281e-15 -5.63035e-15 4.37413e-21 1.05879e-22 0 0.0005 1.46608e-07 
99 1 0.0248163 0.0220886 0.0164811 -0.000198165 0.000565161 -3.48813e-05 -5.61981e-08 1.74568e-08 -3.2232e-08 0.0005 1.46608e-07 
100 1 0.0169546 0.0222262 0.01462 0.00298292 0.00551702 -0.0127979 -2.22672e-07 1.15315e-07 -1.41654e-06 0.0005 1.46608e-07 
101 1 0.0271476 0.0214559 0.0150028 0.00181861 0.0135482 -0.0099348 6.87082e-06 1.02747e-05 -7.62214e-06 0.0005 1.46608e-07 
103 1 0.0289135 0.0178603 0.0059009 6.62739e-15 5.40875e-16 7.76943e-14 9.23795e-21 1.146e-18 0 0.0005 1.46608e-07 
104 1 0.0162306 0.0221748 0.0154891 0.0383241 -0.0971331 0.16591 0 0 -1.43822e-06 0.0005 1.46608e-07 
106 1 0.017949 0.015889 0.00857011 0.000416043 -0.016846 0.0181391 -2.99153e-09 4.95137e-10 1.87021e-08 0.0005 1.46608e-07 
107 1 0.0215274 0.0238896 0.0132517 -0.000242384 0.0026073 -0.000648794 3.39603e-07 -2.90919e-07 -2.16051e-07 0.0005 1.46608e-07 
108 1 0.019128 0.0224167 0.0169618 0.0570014 -0.0488822 -0.0278476 0 0 -1.43822e-06 0.0005 1.46608e-07 
109 1 0.0333745 0.0196852 0.00587267 -1.37666e-15 -7.63425e-15 2.96062e-14 -2.22214e-20 1.76818e-20 3.59989e-21 0.0005 1.46608e-07 
111 1 0.0323386 0.018955 0.00574364 -1.72425e-15 -1.80405e-14 -5.36933e-14 -2.99241e-20 -1.42937e-21 1.05879e-21 0.0005 1.46608e-07 
113 1 0.0246478 0.0159944 0.0157461 -0.00240827 0.000695285 -0.00484531 -7.65003e-08 -2.08833e-08 -1.07066e-07 0.0005 1.46608e-07 
115 1 0.0231245 0.0216173 0.0151254 0.00133843 0.0145258 -0.0101645 -1.81744e-07 1.35845e-06 -9.53626e-07 0.0005 1.46608e-07 
116 1 0.0230379 0.0154913 0.0155487 0.00522244 -0.011665 0.000306279 -2.46623e-05 1.84775e-05 5.17268e-06 0.0005 1.46608e-07 
117 1 0.0228768 0.0162826 0.0161387 -0.000882912 0.00249207 -0.000177703 0 0 -1.43822e-06 0.0005 1.46608e-07 
118 1 0.021842 0.0143452 0.0139308 0.00372968 0.000198265 0.00337954 -6.63157e-07 2.39825e-08 -3.19752e-07 0.0005 1.46608e-07 
120 1 0.016648 0.0237925 0.0134509 -0.00081497 -0.000589933 -0.000614742 8.85074e-07 5.87197e-07 -1.19644e-07 0.0005 1.46608e-07 
121 1 0.0200657 0.0140397 0.0129938 0.000659288 0.00103398 -0.00201307 1.73355e-06 4.48647e-07 -3.88353e-07 0.0005 1.46608e-07 
123 1 0.0195936 0.0154086 0.0152873 0.00564379 0.00966133 0.0102718 4.01617e-07 1.35387e-07 2.13096e-07 0.0005 1.46608e-07 
124 1 0.0280721 0.017299 0.0154128 0.0004544 0.0225137 0.0114337 6.15453e-08 -6.22473e-08 -3.85582e-08 0.0005 1.46608e-07 
126 1 0.0209077 0.0223701 0.0144116 0.00100061 0.0144263 -0.0170717 -1.00217e-07 -1.46562e-06 1.39023e-06 0.0005 1.46608e-07 
128 1 0.0152196 0.0190893 0.0167872 -3.31144e-09 0.0292513 -0.000181716 -8.12336e-15 -1.16216e-10 -2.34539e-08 0.0005 1.46608e-07 
129 1 0.0226832 0.019766 0.0167634 -0.00356689 0.0259247 -0.00307988 2.33894e-09 8.57628e-08 -3.30762e-07 0.0005 1.46608e-07 
131 1 0.0237759 0.0187488 0.0159477 3.85812e-05 0.0241529 0.00141815 7.08597e-08 -7.88115e-09 -2.88608e-08 0.0005 1.46608e-07 
132 1 0.0283537 0.0679475 0.0114974 0.0712879 0.257394 -0.882072 0 0 -1.43822e-06 0.0005 1.46608e-07 
134 1 0.027155 0.0232503 0.0126549 0.00487703 0.0037483 -0.00923991 1.77242e-06 -3.23295e-07 7.93085e-07 0.0005 1.46608e-07 
136 1 0.0191802 0.0233657 0.0145114 -0.0133264 0.0163892 -0.024427 4.23923e-07 6.37852e-07 -5.54267e-07 0.0005 1.46608e-07 
137 1 0.0168807 0.0149827 0.0133516 0.000385368 0.00971147 0.0233915 7.00413e-09 4.18458e-07 1.86699e-07 0.0005 1.46608e-07 
140 1 0.0285179 0.0158262 0.0143666 0.000977449 0.0102745 0.0120249 1.24772e-08 -3.56081e-08 -3.36105e-08 0.0005 1.46608e-07 
141 1 0.0264684 0.0231356 0.0129104 0.000760033 0.00889143 -0.0212157 -1.88072e-07 6.35006e-07 -1.93433e-06 0.0005 1.46608e-07 
142 1 0.0162263 0.023446 0.0167901 -0.000268387 -0.0146021 -0.0204122 3.61166e-07 -1.6461e-07 -8.07553e-07 0.0005 1.46608e-07 
143 1 0.0219887 0.0189851 0.018172 0.115836 -0.170263 0.041933 0 0 -1.43822e-06 0.0005 1.46608e-07 
145 1 0.0237472 0.0228351 0.0153729 0.00298098 0.00175755 -0.00496153 8.66241e-07 4.98014e-07 -1.50862e-06 0.0005 1.46608e-07 
146 1 0.0152147 0.0216238 0.0152405 0.022699 -0.0579481 0.106385 0 0 -1.43822e-06 0.0005 1.46608e-07 
147 1 0.0219582 0.0182808 0.0158759 0.00252158 0.0145786 0.00275812 -1.01787e-07 4.91014e-07 7.62649e-08 0.0005 1.46608e-07 
149 1 0.0131974 0.0182637 0.0166883 -0.0292922 0.00282915 0.000393081 4.7375e-07 2.52619e-07 6.28764e-08 0.0005 1.46608e-07 
151 1 0.0185493 0.0141076 0.0127923 -0.00236009 0.00105296 -0.00302086 1.48506e-07 -5.0144e-07 4.05684e-07 0.0005 1.46608e-07 
152 1 0.0679951 0.0181579 0.00579005 -2.53135e-15 -5.06988e-15 -1.74883e-13 -5.10767e-20 4.96507e-20 -8.47033e-22 0.0005 1.46608e-07 
154 1 0.0192598 0.0170431 0.0170893 -0.0461072 -0.168933 -0.102458 0 0 -1.43822e-06 0.0005 1.46608e-07 
155 1 0.0199234 0.0233168 0.0106275 0.0026629 -0.00527545 -0.0168757 -9.80239e-07 -9.82171e-08 -8.5523e-07 0.0005 1.46608e-07 
156 1 0.0173965 0.0153599 0.0141207 0.00424573 0.0129057 0.0192282 -9.62895e-08 -6.30315e-07 2.87803e-06 0.0005 1.46608e-07 
157 1 0.0535655 -0.0159946 0.0695319 0.14324 -0.216114 -0.556776 0 0 -1.43822e-06 0.0005 1.46608e-07 
158 1 0.0148708 0.0230086 0.0146034 0.0182807 -0.0079684 -0.0299087 -5.28106e-07 4.35177e-07 -1.40036e-06 0.0005 1.46608e-07 
159 1 0.0177179 0.0181049 0.0158508 1.1395e-07 0.023563 0.00534521 1.35319e-10 4.58805e-09 -1.83115e-08 0.0005 1.46608e-07 
160 1 0.016785 0.018207 0.0161961 -0.00127948 0.0333802 -0.00101074 -3.10097e-08 1.61657e-07 -2.07812e-07 0.0005 1.46608e-07 
161 1 0.0160074 0.0188749 0.0159558 -3.22896e-09 0.0241774 0.000912248 1.34542e-12 8.19586e-10 -2.16432e-08 0.0005 1.46608e-07 
162 1 0.0171201 0.021466 0.0152498 0.00506719 0.00851366 -0.00900261 -1.39591e-07 4.89526e-07 -1.37415e-06 0.0005 1.46608e-07 
163 1 0.0221284 0.0231544 0.0159799 0.00841584 -0.00443615 -0.0080449 -1.76201e-07 -1.24811e-07 3.19015e-07 0.0005 1.46608e-07 
165 1 0.0129095 0.020919 0.0164251 0.00958946 0.0145388 -0.00449807 3.34184e-08 -3.97947e-08 -6.99292e-08 0.0005 1.46608e-07 
166 1 0.0252947 0.0204841 0.0165498 -0.00136265 0.00100182 -0.000208829 -2.1009e-07 -1.88458e-07 1.14435e-07 0.0005 1.46608e-07 
167 1 0.0186378 0.0149715 0.0139746 0.0023854 0.00778388 0.0170611 -3.46089e-08 -3.86102e-07 -1.29875e-07 0.0005 1.46608e-07 
168 1 0.0234168 0.0157016 0.0144445 0.00309279 0.00935083 0.0101751 9.87612e-07 -8.30576e-07 -5.31338e-06 0.0005 1.46608e-07 
169 1 0.0180392 0.0239906 0.0119036 -0.00116283 -0.00558095 -0.00267569 1.32217e-07 7.51494e-08 -1.17782e-07 0.0005 1.46608e-07 
170 1 0.0254943 0.0214323 0.0167944 -0.00029666 0.000277116 -0.000178185 -1.09516e-08 1.28116e-08 1.41175e-09 0.0005 1.46608e-07 
173 1 0.0221764 0.0173024 0.0155899 0.000748101 0.021722 0.00941938 3.85241e-07 2.71934e-07 6.62245e-07 0.0005 1.46608e-07 
176 1 0.0219455 0.0220429 0.014807 0.000606506 -0.00332928 0.00408024 1.84604e-06 6.38791e-06 -7.42829e-06 0.0005 1.46608e-07 
177 1 0.0258223 0.0229802 0.00972507 0.000883176 -0.00548221 -0.0155038 -8.91727e-06 -2.42651e-06 -1.23493e-05 0.0005 1.46608e-07 
178 1 0.0210672 0.0146754 0.0144694 0.00647811 0.00211362 0.00571685 -2.34101e-07 1.16845e-07 1.73549e-07 0.0005 1.46608e-07 
179 1 0.0244129 0.022221 0.0156375 -0.000205722 0.000849619 -0.000105265 -1.77608e-07 -5.36171e-08 -1.77905e-07 0.0005 1.46608e-07 
180 1 0.0218069 0.0220708 0.0158159 -0.0174944 -0.0075656 -0.00417244 0 0 -1.43822e-06 0.0005 1.46608e-07 
181 1 0.0230923 0.0171799 0.0165249 0.022065 0.00854599 -0.00484692 -3.26365e-06 -1.06939e-05 1.05955e-05 0.0005 1.46608e-07 
182 1 0.0251445 0.0187974 0.00587913 1.4303e-14 2.30374e-15 -2.33189e-13 -6.08805e-22 -1.94421e-20 -2.11758e-22 0.0005 1.46608e-07 
183 1 0.0189572 0.0201071 0.00735241 0.000286036 -0.0246589 -0.00738374 -4.19211e-09 -1.26308e-08 1.13842e-08 0.0005 1.46608e-07 
184 1 0.0231775 0.023568 0.0152053 -0.000238243 -0.000157907 -0.000132014 4.91359e-07 -5.17963e-07 1.58898e-06 0.0005 1.46608e-07 
185 1 0.0207889 0.0231828 0.0129777 -0.00299007 0.000122719 -1.69413e-05 -3.71544e-05 -3.98053e-06 -6.75376e-06 0.0005 1.46608e-07 
186 1 0.0199243 0.0243075 0.0165957 -0.0022573 -0.0201501 -0.045021 7.28087e-08 -3.61771e-07 -8.35444e-07 0.0005 1.46608e-07 
188 1 0.0234421 0.0148467 0.0106432 -2.39488e-05 -0.00765958 0.0223181 -1.60449e-08 4.16768e-08 -6.44393e-08 0.0005 1.46608e-07 
189 1 0.0176176 0.014041 0.0134464 -0.00578218 0.00646521 -0.0139165 1.36332e-07 -4.4126e-08 -5.82531e-07 0.0005 1.46608e-07 
190 1 0.0258016 0.00197399 0.0435188 -1.72435e-269 3.32423e-266 -2.57091e-12 -3.02725e-272 -8.83902e-270 0 0.0005 1.46608e-07 
191 1 0.0208067 0.0207475 0.0167575 0.0436989 -0.0855839 0.011389 0 0 -1.43822e-06 0.0005 1.46608e-07 
192 1 0.0174387 0.0163254 0.0150213 0.00495856 0.0103709 0.00693162 -6.01068e-09 -7.73635e-08 -6.2273e-08 0.0005 1.46608e-07 
193 1 0.042324 0.0206844 0.00610545 -3.62737e-15 3.15669e-14 -1.0013e-13 2.56472e-19 4.01282e-20 2.32934e-21 0.0005 1.46608e-07 
198 1 0.0244352 0.0187026 0.0167437 1.04913e-09 0.0290213 0.00165886 2.26159e-12 1.0658e-09 -2.32803e-08 0.0005 1.46608e-07 
199 1 0.0194893 0.0191849 0.016766 -0.01453 -0.0552134 0.0073017 0 0 -1.43822e-06 0.0005 1.46608e-07 
200 1 0.019423 0.014752 0.0145528 0.00538373 0.0071585 0.012914 3.46065e-07 -3.66864e-07 -3.60632e-08 0.0005 1.46608e-07 
201 1 0.0235332 0.0207523 0.0167329 0.0117239 0.0227708 -0.00283215 0 0 -1.43822e-06 0.0005 1.46608e-07 
202 1 0.0173362 0.020592 0.0156849 0.00646024 0.0122211 -0.00436675 -3.09364e-07 6.99713e-07 -5.73792e-07 0.0005 1.46608e-07 
203 1 0.020192 0.0143918 0.0139214 0.000327016 -0.0025503 -0.00270253 4.06684e-09 -3.01829e-07 -8.19532e-07 0.0005 1.46608e-07 
204 1 0.0237862 0.0155249 0.00897584 0.000532037 -0.0140065 0.019526 -4.02343e-09 1.37877e-08 1.1411e-08 0.0005 1.46608e-07 
205 1 0.02222 0.0212631 0.015369 -0.000501524 -0.0062308 0.00596567 -5.35922e-06 5.12392e-06 -8.04513e-07 0.0005 1.46608e-07 
206 1 0.0206545 0.0156895 0.0155452 0.00176034 0.0083574 0.00808244 -8.23981e-08 -1.08993e-07 -8.07205e-08 0.0005 1.46608e-07 
207 1 0.0213954 0.0227091 0.013917 0.00190075 0.0108013 -0.0160575 2.11246e-06 -1.94495e-06 3.33134e-06 0.0005 1.46608e-07 
209 1 0.0160795 0.0231691 0.0131042 -0.00272037 0.000844867 -0.00296652 3.91425e-07 -1.02653e-07 4.96135e-07 0.0005 1.46608e-07 
211 1 0.0186999 0.0185106 0.00718715 -0.00050761 -0.0245119 0.003447 4.78236e-09 -9.00393e-09 1.30328e-08 0.0005 1.46608e-07 
212 1 0.0229113 0.0192512 0.0159371 5.79979e-05 0.0240651 -0.0010443 -2.71877e-08 -1.96597e-07 -2.59958e-08 0.0005 1.46608e-07 
213 1 0.0156073 0.0222684 0.0145775 0.04059 -0.0716721 0.0789974 0 0 -1.43822e-06 0.0005 1.46608e-07 
214 1 0.0218074 0.0192963 0.0159364 0.000793807 0.0209686 -0.00126271 -1.42127e-07 5.96408e-07 -3.60381e-08 0.0005 1.46608e-07 
216 1 0.0212935 0.0234413 0.0138758 -0.000275819 0.00512711 -0.00547947 2.58024e-06 -7.3903e-07 3.5823e-07 0.0005 1.46608e-07 
217 1 0.0143807 0.0185212 0.0168342 0.0662481 -0.088023 0.00183512 0 0 -1.43822e-06 0.0005 1.46608e-07 
219 1 0.0145453 0.0230143 0.0130478 0.000916642 0.00779909 -0.0217581 -7.10338e-09 -6.90745e-09 -2.48935e-08 0.0005 1.46608e-07 
220 1 0.0196083 0.0230979 0.0156805 0.0242833 -0.048523 -0.049423 0 0 -1.43822e-06 0.0005 1.46608e-07 
221 1 0.0194391 0.0219098 0.00831651 -0.000397843 -0.016593 -0.0170044 -4.97762e-09 4.15357e-08 9.52816e-08 0.0005 1.46608e-07 
223 1 0.020113 0.0235862 0.0142264 -0.000382331 -0.00128673 -0.000748085 8.79817e-07 2.22632e-07 6.86707e-07 0.0005 1.46608e-07 
225 1 0.0165 0.0231627 0.015757 0.0355157 0.0267219 0.0226824 0 0 -1.43822e-06 0.0005 1.46608e-07 
228 1 0.0260052 0.0232819 0.0105912 0.000250982 -0.0052529 -0.0219372 3.04056e-06 -1.52018e-06 -7.53066e-09 0.0005 1.46608e-07 
231 1 0.0257981 0.0182528 0.0166984 2.38123e-06 0.0287346 0.0045516 -2.23156e-09 -4.80138e-08 -2.86281e-08 0.0005 1.46608e-07 
233 1 0.0165083 0.0160513 0.0147782 0.00102767 0.0164497 0.0150892 9.44813e-10 -1.20292e-08 -3.13662e-08 0.0005 1.46608e-07 
234 1 0.0202649 0.0234303 0.0114833 0.00255969 -0.00157528 -0.017976 1.06367e-06 2.00878e-06 -1.38613e-06 0.0005 1.46608e-07 
235 1 0.00795985 0.0177067 0.00608549 -1.63507e-14 -6.77226e-14 -1.91474e-13 -2.02679e-19 5.02396e-20 2.96462e-21 0.0005 1.46608e-07 
236 1 0.0170854 0.0194275 0.0159709 0.00865895 0.0236867 0.0128768 0 0 -1.43822e-06 0.0005 1.46608e-07 
237 1 0.0242258 0.0169195 0.00774136 0.000874924 -0.019461 0.0118594 -1.17517e-08 -1.84744e-08 2.3418e-08 0.0005 1.46608e-07 
238 1 0.0220699 0.0235392 0.0169113 -0.00138758 -0.00924957 -0.00889331 0 0 -1.43822e-06 0.0005 1.46608e-07 
239 1 0.0209255 0.02351 0.0148042 0.000365587 -0.0025013 -0.00241683 6.51019e-07 2.6087e-07 -6.96605e-08 0.0005 1.46608e-07 
240 1 0.0153507 0.0229155 0.0136388 -0.00145116 -2.12823e-05 -0.000884489 7.61207e-08 -7.89505e-08 1.0122e-07 0.0005 1.46608e-07 
241 1 0.0238804 0.017478 0.0177725 0.179822 -0.208293 -0.0767255 0 0 -1.43822e-06 0.0005 1.46608e-07 
242 1 0.0246267 0.0186931 0.00720845 0.000930571 -0.0229164 0.00259492 -5.40701e-09 -1.46921e-08 1.52772e-08 0.0005 1.46608e-07 
243 1 0.0204285 0.0237558 0.0156364 -0.00451273 -0.0031308 -0.00460622 2.08979e-09 7.46409e-09 -1.38008e-06 0.0005 1.46608e-07 
244 1 0.0210023 0.0141231 0.013334 -7.6266e-05 0.000370621 -0.000986221 2.11142e-07 -1.40323e-07 1.72858e-08 0.0005 1.46608e-07 
245 1 0.0215278 0.0228433 0.0152435 -0.00309261 -0.00419259 0.000611012 -6.12431e-07 2.79725e-07 3.80093e-07 0.0005 1.46608e-07 
247 1 0.0221163 0.0229576 0.0144432 -0.00120226 -0.00280412 0.00145222 9.49683e-07 1.13835e-06 1.53371e-06 0.0005 1.46608e-07 
250 1 0.0229103 0.022351 0.0144735 0.00567111 0.00621191 -0.00901308 2.84721e-06 -5.55e-06 6.5287e-06 0.0005 1.46608e-07 
251 1 0.0234337 0.0202698 0.0157745 0.013717 0.017663 -0.00587263 7.20476e-06 -2.88332e-06 5.26587e-06 0.0005 1.46608e-07 
255 1 0.0218535 0.0182432 0.019592 0.154031 -0.193099 0.138805 0 0 -1.43822e-06 0.0005 1.46608e-07 
256 1 0.0161464 0.020887 0.015636 0.20531 -0.101543 0.121656 0 0 -1.43822e-06 0.0005 1.46608e-07 
258 1 0.0165504 0.0228018 0.013907 -0.00159899 0.00194668 -0.013732 0 0 -1.43822e-06 0.0005 1.46608e-07 
260 1 0.0174765 0.0140639 0.0144461 0.0142837 -0.00552266 -0.0121979 7.51312e-07 -4.0297e-07 7.18553e-08 0.0005 1.46608e-07 
261 1 0.0215477 0.0202314 0.0161851 0.00129182 0.0233019 -0.00743048 0 0 -1.43822e-06 0.0005 1.46608e-07 
262 1 0.0199052 0.0213333 0.00785783 0.00356572 -0.0152677 -0.00866163 -1.93875e-08 -6.08573e-08 -2.0753e-08 0.0005 1.46608e-07 
264 1 0.0206505 0.0147563 0.0159068 0.0166701 0.00610856 0.00362863 2.27073e-07 1.91656e-07 5.80122e-07 0.0005 1.46608e-07 
265 1 0.0200064 0.0224995 0.0164283 -0.0196723 -0.00936619 -0.0184068 0 0 -1.43822e-06 0.0005 1.46608e-07 
267 1 0.0224388 0.0203658 0.0157515 0.00974752 -0.00897873 0.00336011 -4.00118e-06 -5.12987e-06 2.04272e-06 0.0005 1.46608e-07 
268 1 0.0279362 0.0182126 0.0157208 0.000220633 0.0237127 0.00616048 2.9593e-08 3.49741e-07 -3.30046e-07 0.0005 1.46608e-07 
270 1 0.0229404 0.0221315 0.0159743 -0.0171239 0.0208732 -0.0351683 0 0 -1.43822e-06 0.0005 1.46608e-07 
272 1 0.0222894 0.0242945 0.0187446 -0.0166766 -0.0397326 -0.101817 -1.10968e-07 -3.45834e-07 -8.59772e-07 0.0005 1.46608e-07 
275 1 0.0207447 0.0223102 0.0156663 0.00807831 0.0247819 -0.0221614 0 0 -1.43822e-06 0.0005 1.46608e-07 
277 1 0.0226031 0.0210765 0.0165473 -0.0111781 0.0100129 -0.0204118 0 0 -1.43822e-06 0.0005 1.46608e-07 
279 1 0.0211806 0.0167711 0.0162492 -0.00090306 0.0184686 0.00939854 1.32769e-08 1.49953e-07 5.53824e-08 0.0005 1.46608e-07 
281 1 0.0250286 0.0215549 0.0159953 -0.000782339 0.00166009 -0.000421541 -2.1378e-08 3.54614e-08 -1.07694e-08 0.0005 1.46608e-07 
282 1 0.0159256 0.023591 0.0142787 -0.0450878 -0.021763 0.076386 0 0 -1.43822e-06 0.0005 1.46608e-07 
284 1 0.024482 0.0205889 0.0171635 0.0410584 0.0297232 -0.0306731 0 0 -1.43822e-06 0.0005 1.46608e-07 
285 1 0.0191427 0.0211981 0.00775828 0.000906595 -0.0183764 -0.0103018 -3.46342e-10 -1.21849e-08 1.62065e-08 0.0005 1.46608e-07 
286 1 0.0221431 0.0202923 0.0178956 0.125645 -0.0647307 0.0410228 0 0 -1.43822e-06 0.0005 1.46608e-07 
289 1 0.0243015 0.0197047 0.0167152 0.00289632 0.0192172 -0.00274477 -2.65729e-07 1.0941e-06 -1.15555e-07 0.0005 1.46608e-07 
290 1 0.0253876 0.0194317 0.0167328 -5.13052e-06 0.02892 -0.00201778 2.85099e-09 3.74191e-09 -2.37003e-08 0.0005 1.46608e-07 
293 1 0.0192322 0.0142189 0.0135163 0.000505379 0.00681232 -0.0054462 -1.28481e-06 -1.22965e-06 -1.86351e-06 0.0005 1.46608e-07 
294 1 0.0202604 0.014483 0.0150276 0.00755191 0.00482885 0.00819439 3.16808e-07 4.97042e-08 2.69117e-07 0.0005 1.46608e-07 
295 1 0.0212438 0.0236431 0.0163158 0.00374046 -0.0176598 -0.0444024 0 0 -1.43822e-06 0.0005 1.46608e-07 
296 1 0.0210097 0.0235172 0.0121203 0.00200116 -0.0008393 -0.000289941 -1.81981e-05 3.9414e-05 3.29222e-05 0.0005 1.46608e-07 
297 1 0.0274638 0.003903 0.0435188 9.7017e-317 -9.68243e-317 -1.69736e-12 0 0 0 0.0005 1.46608e-07 
299 1 0.0183781 0.01607 0.0147926 0.00259697 0.00431888 0.00398157 -4.61576e-08 -1.38358e-07 -1.28134e-07 0.0005 1.46608e-07 
