ITEM: TIMESTEP
3000000
ITEM: NUMBER OF ATOMS
275
ITEM: BOX BOUNDS ff ff ff
-0.02 0.43
-0.02 0.09
-0.03 0.1
ITEM: ATOMS id type x y z vx vy vz fx fy fz radius mass 
1 1 0.021936 0.0231848 0.0158374 -0.0118631 0.00279717 -0.013281 0 0 -1.43822e-06 0.0005 1.46608e-07 
2 1 0.0169807 0.0242937 0.0140931 0.000665724 0.00079737 -0.00127977 -7.79184e-07 -1.39112e-06 2.89981e-06 0.0005 1.46608e-07 
3 1 0.0228581 0.0236835 0.0150966 1.78776e-05 0.000402753 7.56665e-05 1.9208e-06 -2.38879e-06 1.12612e-06 0.0005 1.46608e-07 
4 1 0.0210079 0.0243035 0.0139276 0.000146334 -0.000183536 2.2816e-05 -4.44522e-07 1.78537e-06 -2.04488e-06 0.0005 1.46608e-07 
5 1 0.0242553 0.0153805 0.00922428 0.000270301 -0.0138007 0.0215891 -4.15984e-09 8.64977e-09 1.4819e-08 0.0005 1.46608e-07 
6 1 0.0177796 0.0240804 0.0128641 -0.000255639 0.00260143 -0.00141786 3.49851e-06 -1.38949e-06 3.30754e-06 0.0005 1.46608e-07 
7 1 0.0204238 0.0161389 0.0158724 -0.000388429 0.00552888 0.00527485 1.73422e-08 5.49391e-09 2.09042e-08 0.0005 1.46608e-07 
8 1 0.026163 0.0225743 0.00902835 0.00203707 -0.0116017 -0.0164942 1.41151e-06 1.48288e-06 6.31552e-07 0.0005 1.46608e-07 
9 1 0.0201785 0.0218647 0.0148823 -9.93022e-06 0.0206036 -0.0171055 2.85842e-12 -1.52501e-08 -1.83806e-08 0.0005 1.46608e-07 
10 1 0.0187154 0.0241597 0.0130339 -0.000173323 0.000989064 -0.000197249 3.72822e-07 2.09268e-08 -2.32444e-06 0.0005 1.46608e-07 
11 1 0.0234321 0.017436 0.0156447 0.00424623 0.0158032 0.00774792 -4.80195e-08 -1.02142e-07 -1.47102e-06 0.0005 1.46608e-07 
12 1 0.0159461 0.0207867 0.0156835 0.00880328 -0.0151543 -0.0350398 0 0 -1.43822e-06 0.0005 1.46608e-07 
13 1 0.0203105 0.018786 0.0167573 0.00401861 0.0237813 -0.000273764 -1.07067e-06 9.25186e-07 1.12076e-06 0.0005 1.46608e-07 
14 1 0.0241996 0.0224243 0.0155091 -0.00107705 0.00281601 0.000382266 5.98443e-06 1.94137e-06 7.58943e-07 0.0005 1.46608e-07 
15 1 0.0235859 0.0231754 0.0155082 -0.000589864 0.000878454 7.27912e-05 6.01363e-06 5.25288e-06 -1.828e-06 0.0005 1.46608e-07 
16 1 0.0209217 0.0234996 0.0146348 0.00766479 -0.0246612 0.000109379 0 0 -1.43822e-06 0.0005 1.46608e-07 
17 1 0.0205934 0.024095 0.013071 0.00114092 -0.000376241 -0.00134474 -1.7184e-07 8.04681e-07 -3.59433e-07 0.0005 1.46608e-07 
19 1 0.0180957 0.0244537 0.0138078 -0.00011748 0.000682473 -0.00127604 -1.28184e-06 -2.04186e-06 1.5654e-05 0.0005 1.46608e-07 
20 1 0.0226241 0.0235496 0.0141189 0.000300335 -0.000142321 9.54511e-05 2.63713e-06 -3.88169e-06 -4.94888e-06 0.0005 1.46608e-07 
21 1 0.0220241 0.0202418 0.0158346 0.000870256 0.0212 -0.00525171 4.50851e-06 -4.87e-06 8.66463e-06 0.0005 1.46608e-07 
22 1 0.0179513 0.0160036 0.0153328 -0.00624013 0.0165471 0.0132381 -1.34307e-08 1.02368e-06 2.62238e-07 0.0005 1.46608e-07 
23 1 0.0296453 0.0194036 0.00583977 -1.27841e-14 1.14722e-16 -1.49966e-13 0 3.10191e-20 0 0.0005 1.46608e-07 
24 1 0.0211397 0.0180224 0.0157562 2.8405e-06 0.0259829 0.00627691 3.99274e-13 5.61478e-09 -2.32379e-08 0.0005 1.46608e-07 
25 1 0.0218425 0.0240574 0.0143529 -0.000254588 6.47368e-05 -0.000160033 2.97197e-06 -4.05589e-06 -2.5314e-06 0.0005 1.46608e-07 
26 1 0.0188641 0.0237156 0.0139204 0.00165341 0.016165 -0.0249819 0 0 -1.43822e-06 0.0005 1.46608e-07 
27 1 0.0222794 0.0190793 0.01599 0.000144931 0.0240428 0.00188908 1.71883e-06 -8.58826e-06 -1.32088e-05 0.0005 1.46608e-07 
28 1 0.103009 0.0215368 0.00628499 -8.34183e-15 7.31857e-14 -1.9661e-13 2.18846e-19 -2.11229e-20 -1.20702e-20 0.0005 1.46608e-07 
29 1 0.0169247 0.0239356 0.0132158 -0.000194992 0.00157442 -0.0016277 1.77339e-06 -2.54709e-06 6.27161e-06 0.0005 1.46608e-07 
30 1 0.0142028 0.0153119 0.0151834 0.000192192 -6.57386e-05 -0.000155479 2.74314e-07 2.18195e-07 -3.25183e-07 0.0005 1.46608e-07 
31 1 0.0196497 0.0242806 0.0128992 6.09612e-05 0.00127183 -0.0013757 -4.57345e-07 7.4958e-07 2.37217e-07 0.0005 1.46608e-07 
32 1 0.0233385 0.0231199 0.0145897 -0.000572271 0.00053345 0.000559721 8.0662e-06 -2.26703e-06 -2.57245e-06 0.0005 1.46608e-07 
33 1 0.0255788 0.0207711 0.0164238 0.00397476 -0.00971205 0.00823789 -2.16493e-05 2.99501e-05 -2.03346e-05 0.0005 1.46608e-07 
34 1 0.0231208 0.0195543 0.015946 0.00510919 0.011425 -0.00210971 -2.92674e-05 4.28744e-05 1.04947e-05 0.0005 1.46608e-07 
35 1 0.0209418 0.023353 0.0125358 0.00205495 0.00531749 -0.023329 -1.98661e-06 -4.51261e-07 2.05368e-06 0.0005 1.46608e-07 
36 1 0.0246602 0.0204302 0.017978 -0.00141049 -0.00123666 -0.0307286 0 0 -1.43822e-06 0.0005 1.46608e-07 
37 1 0.0275614 0.021742 0.0148139 0.00364294 0.00395778 0.00195206 -0.000153792 0.000153411 0.000160824 0.0005 1.46608e-07 
38 1 0.0191255 0.0236725 0.0151499 0.00772405 0.00538868 -0.0132898 0 0 -1.43822e-06 0.0005 1.46608e-07 
39 1 0.0242329 0.0168291 0.0153644 -0.000127402 0.0132748 0.0065592 8.34015e-09 -5.49255e-08 -3.72064e-08 0.0005 1.46608e-07 
40 1 0.0211595 0.0147833 0.0145568 -0.00934461 -0.011045 -0.0128298 5.72376e-08 -3.45606e-07 -3.44532e-07 0.0005 1.46608e-07 
41 1 0.0214579 0.0244884 0.0185358 -0.0158916 -0.0411711 -0.108049 0 0 -1.43822e-06 0.0005 1.46608e-07 
42 1 0.0214073 0.022481 0.0143352 -0.00274966 0.0153766 -0.0165549 4.68143e-06 -1.18842e-06 2.72468e-07 0.0005 1.46608e-07 
43 1 0.0211373 0.0216371 0.0161075 -0.00310279 0.0201518 -0.00951782 0 0 -1.43822e-06 0.0005 1.46608e-07 
44 1 0.0189697 0.0198015 0.0178343 -0.00636884 -0.0204025 0.0307075 0 0 -1.43822e-06 0.0005 1.46608e-07 
45 1 0.0272878 0.0225995 0.0138003 -7.02599e-05 0.0152253 -0.0213731 -1.98296e-09 -9.40404e-09 -1.38397e-08 0.0005 1.46608e-07 
46 1 0.0228525 0.0225559 0.0141416 -0.00157159 0.0113539 -0.0139377 3.62732e-06 -1.5828e-06 -1.04199e-05 0.0005 1.46608e-07 
47 1 0.010355 0.029074 0.0364594 0.0153099 -0.0257253 -0.0125312 0 0 -1.43822e-06 0.0005 1.46608e-07 
48 1 0.0248919 0.0174683 0.0167004 0.0126143 -0.00352083 -0.10749 0 0 -1.43822e-06 0.0005 1.46608e-07 
49 1 0.0192161 0.0226327 0.0153624 -4.46791e-05 0.0229578 -0.0212188 -1.2309e-08 2.16093e-07 -2.56863e-07 0.0005 1.46608e-07 
50 1 0.0263617 0.0229762 0.00967215 0.0012866 -0.00748443 -0.0183873 -8.98726e-07 -3.78335e-07 -6.24902e-07 0.0005 1.46608e-07 
51 1 0.0205459 0.0227064 0.00928775 -0.00128215 -0.0103233 -0.0174258 -1.65192e-08 -1.1468e-08 -1.46739e-09 0.0005 1.46608e-07 
52 1 0.0228213 0.0167265 0.0152933 0.00211889 0.0160973 0.00937617 -6.13799e-07 2.80592e-08 8.6463e-07 0.0005 1.46608e-07 
53 1 0.021659 0.0198964 0.0059291 1.99591e-14 -8.8795e-15 1.8247e-13 8.90179e-20 -4.93158e-19 -3.26108e-20 0.0005 1.46608e-07 
55 1 0.0197045 0.0238028 0.0133405 -0.000240398 0.00301604 -0.0052316 1.34676e-06 2.81432e-07 -4.80742e-07 0.0005 1.46608e-07 
57 1 0.0223457 0.0141491 0.0147577 0.00456537 -0.00240813 0.00563797 -1.11704e-08 -1.18676e-07 -1.5617e-06 0.0005 1.46608e-07 
59 1 0.0211625 0.0227848 0.0170007 0.0454295 0.00285092 -0.0324705 0 0 -1.43822e-06 0.0005 1.46608e-07 
60 1 0.0189236 0.0175254 0.00745713 0.00028487 -0.0224079 0.00883631 -2.27006e-09 -6.8501e-09 1.95336e-08 0.0005 1.46608e-07 
61 1 0.0232401 0.0156037 0.0152893 -0.00435433 0.00852769 -0.0106659 0 0 -1.43822e-06 0.0005 1.46608e-07 
62 1 0.0211564 0.0230768 0.0134302 0.00112918 0.00742344 -0.0198954 1.1704e-06 -7.94593e-06 6.24775e-06 0.0005 1.46608e-07 
63 1 0.016308 0.0236668 0.0138899 0.002161 1.93317e-06 -0.000877726 1.24913e-06 -1.29976e-06 -9.2503e-07 0.0005 1.46608e-07 
64 1 0.0199565 0.023769 0.0146002 0.00661746 -0.0179238 -0.025228 0 0 -1.43822e-06 0.0005 1.46608e-07 
65 1 0.0350672 0.0187163 0.00573711 -1.85897e-16 -1.89012e-15 -5.63085e-15 6.61744e-24 1.05879e-22 0 0.0005 1.46608e-07 
66 1 0.012686 0.0205835 0.0165319 0.00131448 -8.02844e-05 -0.00215335 2.58915e-07 -5.45426e-07 1.44784e-07 0.0005 1.46608e-07 
67 1 0.0231674 0.0155508 0.0142647 0.0022455 0.0106559 0.0132929 4.54439e-08 -5.49472e-08 3.92717e-08 0.0005 1.46608e-07 
68 1 0.0214124 0.0204401 0.0166156 -2.19965e-09 0.0283733 -0.00747436 -1.02113e-14 -5.78921e-09 -2.28204e-08 0.0005 1.46608e-07 
70 1 0.0132407 0.0213604 0.016234 0.000638824 0.000290677 -0.000112358 -3.80648e-07 -1.50842e-06 1.08241e-06 0.0005 1.46608e-07 
71 1 0.0215997 0.0173255 0.0164874 -4.07262e-07 0.0275267 0.00974269 -1.69852e-09 -7.16301e-10 -2.44546e-08 0.0005 1.46608e-07 
73 1 0.0204097 0.0220486 0.0168649 0.0240075 0.0140915 -0.0142432 0 0 -1.43822e-06 0.0005 1.46608e-07 
75 1 0.0187195 0.0167322 0.00787509 0.000196323 -0.0223358 0.0133231 -3.53597e-09 1.21369e-09 1.726e-08 0.0005 1.46608e-07 
76 1 0.0243904 0.0157481 0.0155825 0.0014792 -0.00210486 0.00486208 2.051e-07 -3.11364e-07 5.93256e-07 0.0005 1.46608e-07 
77 1 0.0148433 0.0231591 0.0148424 0.00122819 0.00161053 -0.000972062 -8.57441e-07 -1.43589e-06 -7.91597e-06 0.0005 1.46608e-07 
78 1 0.0204562 0.0201479 0.00736552 9.98397e-05 -0.0238091 -0.00735106 3.35213e-09 -9.23963e-09 1.07438e-08 0.0005 1.46608e-07 
79 1 0.0194258 0.0196248 0.0061598 -1.51893e-14 6.81221e-15 -1.39019e-13 1.77348e-21 8.09975e-21 2.11758e-22 0.0005 1.46608e-07 
80 1 0.021413 0.0233576 0.0109484 0.000395578 -0.00367892 -0.0226335 -7.66238e-09 -1.52463e-08 -1.62929e-08 0.0005 1.46608e-07 
82 1 0.0258647 0.02174 0.00822862 0.000193094 -0.0191929 -0.0158278 -1.53717e-09 -1.67218e-08 7.16595e-09 0.0005 1.46608e-07 
83 1 0.0173702 0.0149813 0.0134664 7.91785e-05 0.0112037 0.025413 -3.79339e-08 -3.13839e-07 -1.83122e-06 0.0005 1.46608e-07 
84 1 0.0192405 0.0151465 0.013647 0.000188905 0.0131092 0.0239776 -5.26885e-07 2.0339e-06 1.39272e-06 0.0005 1.46608e-07 
85 1 0.0174471 0.0232522 0.0145448 -0.00904012 -0.00987364 0.0177056 1.13582e-06 2.01891e-06 -1.98654e-06 0.0005 1.46608e-07 
86 1 0.0182829 0.0223399 0.0156243 0.0180267 -0.00382976 0.00323192 3.24532e-05 -7.39903e-07 2.7521e-05 0.0005 1.46608e-07 
87 1 0.00576673 0.0255363 0.0402489 -0.0260548 -0.0116684 0.0411994 0 0 -1.43822e-06 0.0005 1.46608e-07 
88 1 0.0210602 0.0225272 0.00890112 0.0021944 0.00117999 -0.00195361 3.83251e-08 8.58774e-08 1.54995e-07 0.0005 1.46608e-07 
89 1 0.0176246 0.0146734 0.0122892 -0.000191507 0.00585712 0.0263799 2.41587e-06 2.53292e-06 -4.7186e-07 0.0005 1.46608e-07 
90 1 0.0218299 0.0211438 0.0154574 0.000569201 0.0222182 -0.00980118 -4.29092e-06 3.85121e-06 -7.53729e-06 0.0005 1.46608e-07 
92 1 0.0336436 0.0137677 0.0424696 -0.0367801 0.00761086 -0.0334123 0 0 -1.43822e-06 0.0005 1.46608e-07 
93 1 0.0159439 0.0231289 0.0131739 0.00564721 0.00187323 -0.00496974 -1.42208e-06 -6.07463e-07 -2.00123e-07 0.0005 1.46608e-07 
94 1 0.000404389 0.0332672 0.0380285 -0.0983582 0.0425213 -0.428559 0 0 -1.43822e-06 0.0005 1.46608e-07 
96 1 0.0227132 0.0225504 0.0158668 -0.000856303 0.0200757 -0.0100636 0 0 -1.43822e-06 0.0005 1.46608e-07 
97 1 0.0166514 0.0237727 0.0148802 0.00158493 -0.00245461 -0.00184323 1.14284e-06 1.16973e-06 6.58813e-06 0.0005 1.46608e-07 
98 1 0.0234526 0.0149092 0.0127434 0.000688888 0.00467359 0.015543 -3.98729e-06 1.27175e-05 1.57107e-05 0.0005 1.46608e-07 
99 1 0.0253998 0.0215714 0.0167662 0.000220478 -0.00247131 0.00119645 -1.19319e-06 7.87929e-06 -2.37636e-06 0.0005 1.46608e-07 
100 1 0.0223553 0.0221481 0.0147882 -0.00736988 -0.00212206 -0.0256832 -1.98177e-05 -3.28188e-05 -1.49422e-05 0.0005 1.46608e-07 
101 1 0.0231627 0.014722 0.014824 0.0023743 0.00198566 0.000502233 -6.43819e-07 -3.66416e-07 -7.31812e-08 0.0005 1.46608e-07 
103 1 0.0176651 0.0237418 0.0136904 -0.000278156 0.00332933 -0.00379646 -8.79181e-06 -1.16571e-05 1.7233e-05 0.0005 1.46608e-07 
104 1 0.0142526 0.0230061 0.0156346 0.00047738 0.000868902 8.91973e-05 1.77789e-07 1.43453e-07 -1.30622e-06 0.0005 1.46608e-07 
105 1 0.0241016 0.0242786 0.0223781 -0.0095643 -0.0550584 -0.0933066 0 0 -1.43822e-06 0.0005 1.46608e-07 
106 1 0.0236569 0.0221691 0.0163061 0.00108142 -0.00170466 0.00236932 3.63332e-06 -1.61374e-05 1.11226e-05 0.0005 1.46608e-07 
107 1 0.0216883 0.0238532 0.0133626 -0.00129697 -0.000743788 -0.000835369 -2.37349e-07 -1.15926e-06 -1.68209e-06 0.0005 1.46608e-07 
108 1 0.00859489 0.0185578 0.0295009 0.029323 -0.0172468 -0.0687475 3.55722e-07 9.74704e-08 -8.88002e-07 0.0005 1.46608e-07 
109 1 0.0240799 0.019715 0.0159275 0.00505396 0.0040078 -0.00285233 -1.95877e-05 8.05739e-05 1.44976e-06 0.0005 1.46608e-07 
110 1 0.0156621 0.0237241 0.0147435 0.0010362 0.00029843 -0.00128481 2.13604e-06 3.86095e-08 -6.1249e-07 0.0005 1.46608e-07 
111 1 0.01905 0.0183257 0.00725294 0.000512852 -0.0238927 0.00390194 -2.98176e-09 -9.90174e-09 1.47492e-08 0.0005 1.46608e-07 
112 1 0.0181905 0.0236953 0.0156337 0.00458777 -0.000416723 -0.000699829 -2.10195e-06 -5.26101e-06 6.6821e-06 0.0005 1.46608e-07 
113 1 0.0258233 0.0197783 0.0167173 -0.00341654 0.0268688 -0.00373398 -7.19448e-09 -1.02783e-08 -1.67805e-08 0.0005 1.46608e-07 
114 1 0.0161806 0.0196003 0.015922 0.00197304 0.0218915 -0.0061812 0 0 -1.43822e-06 0.0005 1.46608e-07 
115 1 0.0205435 0.0233106 0.0107805 0.000963364 -0.00412211 -0.0219295 -1.38641e-08 -1.37568e-08 -3.29678e-08 0.0005 1.46608e-07 
116 1 0.0181535 0.0239494 0.0146676 -0.00134303 -0.000862709 -6.85642e-05 1.20135e-05 3.06254e-06 -6.14074e-06 0.0005 1.46608e-07 
117 1 0.0199841 0.0193755 0.00717207 0.000959809 -0.0187485 -0.00258421 1.62906e-09 -4.08251e-08 1.07692e-08 0.0005 1.46608e-07 
118 1 0.0152624 0.0228897 0.0137256 0.00481856 0.00177395 -0.00407945 4.90241e-08 -5.49115e-07 -1.00026e-07 0.0005 1.46608e-07 
119 1 0.0236406 0.0147482 0.011782 0.00100597 9.67931e-05 0.0210289 1.03252e-06 5.30935e-07 1.67036e-06 0.0005 1.46608e-07 
120 1 0.0137812 0.0221334 0.0157612 0.000536495 0.000247668 -0.00212204 2.15668e-07 7.15747e-08 -4.44705e-07 0.0005 1.46608e-07 
121 1 0.0209862 0.0226257 0.0160097 0.0186089 0.0298796 -0.0373946 0 0 -1.43822e-06 0.0005 1.46608e-07 
122 1 0.011886 0.02096 0.0221162 0.111343 -0.0731621 -0.307276 0 0 -1.43822e-06 0.0005 1.46608e-07 
123 1 0.018569 0.0158347 0.0145648 0.00154774 0.0185877 0.0195614 -6.26848e-07 1.53171e-06 -7.35627e-07 0.0005 1.46608e-07 
124 1 0.0247969 0.0150062 0.0100333 0.000457465 -0.00660122 0.012178 3.96917e-08 3.9551e-08 -7.23926e-08 0.0005 1.46608e-07 
125 1 0.0166253 0.0142061 0.0136414 0.000711126 0.0011329 -0.0035927 4.11062e-08 -7.07567e-08 6.32821e-08 0.0005 1.46608e-07 
126 1 0.0157859 0.0145121 0.0141827 0.00217585 -0.00104351 -0.0010316 -8.56903e-09 -1.4702e-08 3.55446e-08 0.0005 1.46608e-07 
127 1 0.0160693 0.0229948 0.0152956 0.00246995 0.00203513 0.00357035 0 0 -1.43822e-06 0.0005 1.46608e-07 
128 1 0.0231761 0.0213002 0.0162862 0.00898717 -0.00246607 -0.000151345 7.08532e-06 -5.66221e-06 -1.58124e-05 0.0005 1.46608e-07 
129 1 0.0239903 0.0149125 0.0103369 0.000840702 -0.00876048 0.0231414 -1.45744e-08 1.29687e-08 -1.09221e-07 0.0005 1.46608e-07 
131 1 0.0120218 0.0177055 0.0215764 0.0698585 -0.0196566 -0.131363 3.53955e-07 1.45678e-07 -7.65872e-07 0.0005 1.46608e-07 
132 1 0.0136176 0.0159424 0.0157294 -0.000476366 0.00171454 0.0030957 -1.76566e-09 4.27476e-08 5.56975e-08 0.0005 1.46608e-07 
134 1 0.0218104 0.0237146 0.0171548 -0.00114361 -0.0263584 -0.0437496 0 0 -1.43822e-06 0.0005 1.46608e-07 
135 1 0.0213507 0.0157543 0.0155943 -0.00195432 -0.00756043 -0.00756805 3.23189e-08 -1.31355e-07 -4.90325e-08 0.0005 1.46608e-07 
136 1 0.0152305 0.0224667 0.0154507 0.00327468 0.00163124 -0.00535915 1.14242e-06 7.78032e-06 1.29408e-05 0.0005 1.46608e-07 
137 1 0.0199515 0.0207763 0.0173445 -0.00465214 0.0190026 -0.0517387 0 0 -1.43822e-06 0.0005 1.46608e-07 
138 1 0.0189172 0.0250964 0.018934 0.026733 -0.06839 -0.158872 0 0 -1.43822e-06 0.0005 1.46608e-07 
140 1 0.024856 0.0172171 0.00759391 0.00120322 -0.0156187 0.00520567 1.36262e-09 3.49886e-08 -1.36039e-09 0.0005 1.46608e-07 
141 1 0.0203379 0.0213466 0.00780913 0.00426627 0.00486192 0.000773707 1.0085e-08 1.04199e-07 1.59297e-07 0.0005 1.46608e-07 
142 1 0.0168619 0.0165734 0.0151882 0.00244058 0.0132678 0.00884896 -3.01625e-09 1.37553e-08 4.18158e-09 0.0005 1.46608e-07 
143 1 0.022211 0.0151057 0.0150157 -0.00127918 -0.000910479 -0.000881539 1.26431e-08 -1.85732e-09 -8.54843e-07 0.0005 1.46608e-07 
144 1 0.0200955 0.0140252 0.0130398 0.000280426 -0.000929418 0.000138483 1.01377e-06 4.56775e-08 5.54563e-07 0.0005 1.46608e-07 
145 1 0.0247711 0.0220815 0.0162238 -0.000600939 0.00114898 0.00157806 5.54639e-06 -9.07448e-06 -4.33632e-06 0.0005 1.46608e-07 
146 1 0.0180596 0.0197398 0.015892 0.00860883 -0.0276285 -0.00351352 0 0 -1.43822e-06 0.0005 1.46608e-07 
147 1 0.0137658 0.0211513 0.0172557 -0.000222669 5.26192e-05 -1.64891e-05 7.29034e-07 -6.10098e-07 6.31775e-07 0.0005 1.46608e-07 
149 1 0.0149784 0.0148679 0.0146985 0.00163559 0.000160686 -0.00305362 7.37153e-08 -5.32096e-08 -1.2062e-08 0.0005 1.46608e-07 
151 1 0.02185 0.0143667 0.0139169 0.0045207 0.000486653 0.00623208 0 0 -1.43822e-06 0.0005 1.46608e-07 
152 1 0.0197485 0.0215639 0.0080095 1.77267e-05 -0.015508 -0.0104095 1.55758e-09 1.16513e-08 9.17656e-09 0.0005 1.46608e-07 
153 1 0.0242651 0.0187326 0.015935 0.00434461 0.00620452 0.000483804 1.99429e-06 -7.96233e-06 -4.08336e-06 0.0005 1.46608e-07 
154 1 0.0154855 0.0215736 0.0161578 -0.00168295 -0.00547376 -0.0541935 0 0 -1.43822e-06 0.0005 1.46608e-07 
155 1 0.0182645 0.0151985 0.0138562 0.0001647 0.0138742 0.0240575 -8.4627e-07 5.33654e-07 -1.34912e-06 0.0005 1.46608e-07 
156 1 0.0150391 0.0223736 0.0171419 0.00822612 0.0112396 0.0061965 -8.78367e-07 4.20975e-08 -2.0115e-06 0.0005 1.46608e-07 
157 1 0.0145735 0.0202213 0.017514 0.00728333 0.0117182 -0.00208622 8.15737e-08 1.27519e-08 -1.27754e-06 0.0005 1.46608e-07 
158 1 0.0182347 0.018606 0.0159371 -3.62949e-09 0.0240701 0.00245383 -6.9765e-14 2.19657e-09 -2.15473e-08 0.0005 1.46608e-07 
159 1 0.0220186 0.0228481 0.0138133 -0.00300454 0.00843098 -0.0130776 6.22704e-06 -2.43439e-06 -1.43795e-05 0.0005 1.46608e-07 
160 1 0.0199587 0.0254865 0.019565 -0.0071577 -0.0291643 -0.0682697 0 0 -1.43822e-06 0.0005 1.46608e-07 
161 1 0.0169148 0.0209816 0.0160745 0.00875042 0.00975414 0.017931 0 0 -1.43822e-06 0.0005 1.46608e-07 
162 1 0.0199832 0.0218003 0.0159946 0.00993537 0.0175482 -0.0114853 1.05558e-06 -1.17709e-06 -9.31228e-07 0.0005 1.46608e-07 
163 1 0.0191984 0.0192157 0.00716403 0.000991711 -0.0238705 -0.00179797 9.76924e-10 -9.9389e-09 1.40242e-08 0.0005 1.46608e-07 
165 1 0.0217361 0.023161 0.0129175 0.00477614 0.00824389 -0.0248654 -1.10315e-06 -1.78401e-06 1.45028e-07 0.0005 1.46608e-07 
166 1 0.0198658 0.0244349 0.0138424 -0.000154816 0.000540668 -0.00120801 1.2451e-06 5.9278e-08 -1.36572e-07 0.0005 1.46608e-07 
167 1 0.0234289 0.019694 0.0168959 0.0169095 0.0184846 0.0156385 0 0 -1.43822e-06 0.0005 1.46608e-07 
168 1 0.0195772 0.0204808 0.00752698 0.000230213 -0.0237616 -0.00897693 -7.67332e-09 -1.89344e-08 5.94004e-09 0.0005 1.46608e-07 
169 1 0.0162358 0.0228368 0.0143202 0.00355773 0.000745161 -0.0025022 -1.87949e-06 1.36602e-06 2.47879e-06 0.0005 1.46608e-07 
170 1 0.0210466 0.0141333 0.0133688 0.00327778 -1.78757e-06 0.00495373 -1.44439e-06 8.96776e-07 1.86513e-06 0.0005 1.46608e-07 
171 1 0.0137268 0.0204125 0.0165833 0.00294589 0.00257489 -0.00251899 5.67615e-07 -1.35739e-06 1.62919e-07 0.0005 1.46608e-07 
172 1 0.0226041 0.023134 0.0132277 0.000163293 0.000987588 -0.00321542 2.608e-06 3.87742e-06 9.79336e-06 0.0005 1.46608e-07 
173 1 0.0180202 0.0138024 0.0138484 -0.00155597 -0.000689678 0.0231873 -4.26229e-06 1.78899e-06 -6.30525e-06 0.0005 1.46608e-07 
176 1 0.0175298 0.017807 0.0157793 -2.48335e-05 0.0231424 0.00698471 -1.52139e-08 5.78075e-08 -1.96802e-08 0.0005 1.46608e-07 
177 1 0.0235151 0.0223857 0.018169 0.0572052 -0.0154892 -0.184527 0 0 -1.43822e-06 0.0005 1.46608e-07 
178 1 0.0197957 0.0145748 0.0142649 0.0055046 0.0147711 -0.00525258 0 0 -1.43822e-06 0.0005 1.46608e-07 
179 1 0.0191811 0.0240122 0.0161054 0.00225147 0.00169283 0.00217575 8.79003e-07 -2.03988e-05 2.37282e-07 0.0005 1.46608e-07 
180 1 0.01818 0.0141377 0.0129199 0.00191192 0.000209888 0.0190237 3.54539e-06 6.80347e-06 -2.65555e-06 0.0005 1.46608e-07 
181 1 0.025153 0.0189576 0.0167264 2.23911e-09 0.02888 0.000519623 8.14686e-15 4.19839e-10 -2.31218e-08 0.0005 1.46608e-07 
182 1 0.0216811 0.023393 0.012227 0.00600058 -0.00420771 -0.0317586 -3.49589e-06 3.83884e-06 8.33208e-06 0.0005 1.46608e-07 
183 1 0.0170943 0.0200076 0.0159359 0.00905358 0.0107852 0.00681869 0 0 -1.43822e-06 0.0005 1.46608e-07 
184 1 0.0233207 0.0223245 0.0151016 -0.00137889 0.00202365 -0.000909314 4.37589e-05 5.95243e-06 -6.78565e-06 0.0005 1.46608e-07 
185 1 0.0201148 0.0199597 0.0166935 1.68275e-07 0.0287472 -0.0049062 2.92409e-10 -4.2843e-09 -2.55979e-08 0.0005 1.46608e-07 
186 1 0.0184017 0.0230263 0.014907 0.00624317 -0.00119326 -0.00158586 -8.38398e-07 -6.34321e-06 9.25757e-06 0.0005 1.46608e-07 
187 1 0.0237169 0.0215485 0.0170904 0.0151199 -0.00234524 -0.00352982 0 0 -1.43822e-06 0.0005 1.46608e-07 
188 1 0.0198019 0.0232167 0.0161854 0.00221045 0.0057904 -0.0363554 0 0 -1.43822e-06 0.0005 1.46608e-07 
189 1 0.0226733 0.0233569 0.0179079 0.053031 -0.0791048 -0.075779 0 0 -1.43822e-06 0.0005 1.46608e-07 
190 1 0.0191049 0.0171062 0.0163627 3.70465e-08 0.0268921 0.0107046 1.8632e-10 7.4212e-09 -2.08078e-08 0.0005 1.46608e-07 
191 1 0.0164366 0.0232327 0.0161966 0.0107845 0.00139336 0.00839807 0 0 -1.43822e-06 0.0005 1.46608e-07 
192 1 0.0166748 0.0223392 0.0157492 0.00634001 -0.00221167 0.000223661 0 0 -1.43822e-06 0.0005 1.46608e-07 
193 1 0.0204067 0.0230778 0.009983 0.000888087 -0.00795082 -0.0195776 -1.54746e-08 -2.54749e-08 -2.94726e-08 0.0005 1.46608e-07 
194 1 0.0211972 0.023665 0.0163456 -0.0157262 -0.00857178 -0.0462621 0 0 -1.43822e-06 0.0005 1.46608e-07 
195 1 0.0208245 0.0234884 0.0117523 0.00171069 -0.00610387 -0.0176679 -1.59775e-07 1.5358e-08 -1.04398e-06 0.0005 1.46608e-07 
197 1 0.0154596 0.0197604 0.0167379 0.00681559 0.0109253 -0.00131152 8.92394e-08 -1.38261e-06 -3.15205e-07 0.0005 1.46608e-07 
198 1 0.0189667 0.013931 0.0141437 0.00398518 0.00550675 0.00963964 -1.40819e-06 3.05352e-06 -3.69148e-06 0.0005 1.46608e-07 
199 1 0.0158321 0.0206907 0.0166768 0.0152383 0.00902582 -0.0279396 0 0 -1.43822e-06 0.0005 1.46608e-07 
200 1 0.0186306 0.0146133 0.0119522 5.99797e-06 -0.00146719 0.00245169 -2.80117e-10 1.05954e-07 -1.59933e-07 0.0005 1.46608e-07 
201 1 0.0191151 0.0138878 0.0131561 0.00221868 -0.00535053 0.00898484 4.01194e-06 -1.22978e-06 -1.40969e-06 0.0005 1.46608e-07 
202 1 0.0193736 0.0223745 0.016541 0.0127176 0.00529959 0.00347912 1.21594e-06 -6.72302e-06 -1.29622e-07 0.0005 1.46608e-07 
203 1 0.0143403 0.0196379 0.0167361 0.00904298 0.00811911 0.000222997 1.20645e-06 -1.72266e-06 4.62958e-07 0.0005 1.46608e-07 
204 1 0.0174788 0.0141443 0.0146165 -0.0073003 0.00459268 0.0213458 5.60517e-06 -2.94434e-06 -5.8459e-06 0.0005 1.46608e-07 
205 1 0.0165736 0.0194824 0.0168728 0.0431773 -0.0228109 -0.018257 0 0 -1.43822e-06 0.0005 1.46608e-07 
206 1 0.0202299 0.015122 0.0149948 -0.00595222 0.00570078 0.00941339 1.13084e-07 -2.01296e-07 -1.46961e-07 0.0005 1.46608e-07 
207 1 0.0174365 0.0224202 0.0150994 0.0177622 -0.0123528 0.0125162 -5.47523e-05 8.64057e-06 -3.73675e-05 0.0005 1.46608e-07 
208 1 0.0173102 0.0214451 0.0152812 0.013196 -0.0170013 0.0028309 7.17374e-08 1.0077e-07 -1.42276e-06 0.0005 1.46608e-07 
209 1 0.0223257 0.0208544 0.0165651 -0.00390846 0.0188332 -0.00546567 -1.35242e-06 -2.04631e-06 3.05665e-07 0.0005 1.46608e-07 
210 1 0.0236354 0.0294545 0.0315234 0.0227463 -0.0387249 -0.0430371 0 0 -1.43822e-06 0.0005 1.46608e-07 
211 1 0.0165429 0.0179645 0.0158124 0.000253654 0.0251202 0.00634873 5.03875e-09 -4.7859e-08 5.15973e-09 0.0005 1.46608e-07 
212 1 0.0235607 0.0187305 0.0166453 -0.00527105 0.0183255 -0.0266822 0 0 -1.43822e-06 0.0005 1.46608e-07 
213 1 0.0215756 0.0221842 0.0152631 0.000543023 0.0206527 -0.0138035 4.25616e-06 -4.7037e-05 1.1069e-05 0.0005 1.46608e-07 
214 1 0.017038 0.0230057 0.0135405 -0.000417389 0.00608643 -0.0114023 -1.73223e-06 -2.20805e-06 8.0624e-06 0.0005 1.46608e-07 
216 1 0.0219741 0.0231661 0.0148324 0.0130342 0.00159956 -0.0410639 0 0 -1.43822e-06 0.0005 1.46608e-07 
217 1 0.023714 0.0277497 0.0277585 0.0115756 -0.0427165 -0.0923942 -2.16125e-07 -2.80395e-07 -9.56546e-07 0.0005 1.46608e-07 
218 1 0.0212709 0.0190656 0.0167909 0.00757267 0.0308339 -0.000113931 -8.67902e-07 -2.39864e-07 -2.16125e-07 0.0005 1.46608e-07 
219 1 0.0203313 0.0137749 0.0139673 3.01573e-05 -0.000444186 1.94221e-06 8.56278e-08 3.44179e-07 6.37894e-07 0.0005 1.46608e-07 
220 1 0.0186045 0.019804 0.0167282 -0.0107897 0.0138837 0.00592572 0 0 -1.43822e-06 0.0005 1.46608e-07 
221 1 0.0148124 0.0205073 0.016586 0.00309231 0.00822048 0.000834987 3.40204e-06 3.92015e-07 -1.76705e-06 0.0005 1.46608e-07 
222 1 0.018928 0.0181492 0.0166614 -1.7455e-09 0.0285473 0.00488188 -1.08903e-14 3.81101e-09 -2.28814e-08 0.0005 1.46608e-07 
223 1 0.0154783 0.02232 0.0144935 0.00334274 0.00427746 -0.00559935 -5.86006e-06 -7.78764e-07 -4.07487e-07 0.0005 1.46608e-07 
224 1 0.024685 0.0202933 0.0166086 -0.100116 -0.0504614 0.0319704 0 0 -1.43822e-06 0.0005 1.46608e-07 
225 1 0.0226223 0.0229563 0.0168099 -0.0187955 0.00896904 -0.00546021 0 0 -1.43822e-06 0.0005 1.46608e-07 
226 1 0.0201762 0.0228812 0.0151327 0.00231203 0.0295572 -0.0324711 0 0 -1.43822e-06 0.0005 1.46608e-07 
227 1 0.016497 0.0217549 0.0165516 0.0115198 0.0145901 0.0126354 0 0 -1.43822e-06 0.0005 1.46608e-07 
228 1 0.0171003 0.0189825 0.0159416 2.82893e-06 0.0241012 0.000404439 5.79127e-09 3.48995e-08 -1.87113e-08 0.0005 1.46608e-07 
231 1 0.0205051 0.0237111 0.0155945 -0.0283354 -0.00837735 -0.0517227 0 0 -1.43822e-06 0.0005 1.46608e-07 
232 1 0.0222665 0.0213585 0.0180174 0.0607839 -0.0365262 -0.174483 0 0 -1.43822e-06 0.0005 1.46608e-07 
233 1 0.0157192 0.0186851 0.0167751 5.71059e-09 0.0291797 0.00210452 1.54173e-11 1.86473e-09 -2.33876e-08 0.0005 1.46608e-07 
234 1 0.0174532 0.0185022 0.0169086 -0.0720272 -0.0407801 -0.144534 0 0 -1.43822e-06 0.0005 1.46608e-07 
235 1 0.014758 0.0163323 0.0163948 -0.0557505 -0.0140949 -0.0468086 0 0 -1.43822e-06 0.0005 1.46608e-07 
236 1 0.0146702 0.0221657 0.016222 0.00110556 0.00463013 -0.00581091 -3.30239e-06 -3.11096e-06 6.65322e-06 0.0005 1.46608e-07 
237 1 0.0238925 0.0206341 0.015667 0.00428766 0.00374555 -0.00234471 -8.05836e-06 3.91515e-05 2.38781e-06 0.0005 1.46608e-07 
238 1 0.0165649 0.0220273 0.0148054 0.0121933 0.00299602 -0.000551991 4.83194e-07 -1.66189e-05 1.08407e-05 0.0005 1.46608e-07 
239 1 0.0177747 0.0216084 0.0162072 0.0290119 0.0207256 -0.0289717 0 0 -1.43822e-06 0.0005 1.46608e-07 
240 1 0.00728714 0.0239846 0.0351259 -0.00446932 -0.024573 -0.0165287 3.92594e-07 -1.86578e-08 -9.46274e-07 0.0005 1.46608e-07 
241 1 0.0184409 0.0208135 0.0164442 0.0129529 0.0029497 0.00143597 0 0 -1.43822e-06 0.0005 1.46608e-07 
242 1 0.0244164 0.021507 0.0179939 -0.0147907 -0.0304814 -0.0765434 -3.34312e-07 -9.69951e-08 -9.69155e-07 0.0005 1.46608e-07 
243 1 0.0166099 0.0233384 0.0125639 0.00542188 0.00196183 -0.00572942 -4.14286e-06 -6.95172e-07 -3.93658e-07 0.0005 1.46608e-07 
244 1 0.017176 0.023905 0.0164697 -0.00543756 -0.00453496 -0.00678874 5.85198e-06 -5.93229e-06 5.65199e-06 0.0005 1.46608e-07 
245 1 0.024507 0.0177354 0.015757 8.3369e-05 0.0232063 0.00738499 -2.5416e-07 7.39457e-08 -1.1354e-07 0.0005 1.46608e-07 
246 1 0.0236813 0.0214869 0.0153244 0.00546001 0.00514091 -0.000961608 -1.65396e-05 8.2866e-06 3.02974e-05 0.0005 1.46608e-07 
247 1 0.017233 0.0234049 0.0156055 0.00514325 -0.00984675 -0.00667563 2.43758e-06 1.3614e-06 3.74281e-06 0.0005 1.46608e-07 
249 1 0.0160197 0.0124587 0.0253877 -0.0844119 -0.0656409 0.19672 0 0 -1.43822e-06 0.0005 1.46608e-07 
250 1 0.0210343 0.0282168 0.0269552 -0.00958077 -0.0442117 -0.093876 -1.11187e-07 -3.55877e-07 -7.74874e-07 0.0005 1.46608e-07 
251 1 0.017067 0.0153185 0.015353 -0.0150654 0.00250099 0.0138144 3.53547e-07 4.55216e-07 1.40283e-06 0.0005 1.46608e-07 
252 1 0.0193963 0.0191927 0.0167265 -0.00197001 0.0224248 0.00100324 0 0 -1.43822e-06 0.0005 1.46608e-07 
253 1 0.0238325 0.01778 0.016494 0.00257917 0.0143637 0.00970188 1.63032e-08 6.21069e-08 -1.39422e-06 0.0005 1.46608e-07 
254 1 0.0157252 0.0216137 0.015157 0.0116457 -0.000634898 0.0036753 -8.12066e-06 2.73824e-06 -4.01693e-06 0.0005 1.46608e-07 
255 1 0.0187948 0.0230913 0.0161529 0.00470279 -0.000522895 0.000986283 1.57191e-06 -4.47114e-06 4.03887e-06 0.0005 1.46608e-07 
256 1 0.0175182 0.0226462 0.0161911 0.0115194 -9.54086e-05 -0.00159648 7.42894e-07 -3.93353e-06 -1.04942e-06 0.0005 1.46608e-07 
257 1 0.0191464 0.0144035 0.0150085 0.00777862 0.0142462 0.00210512 0 0 -1.43822e-06 0.0005 1.46608e-07 
258 1 0.0201614 0.0174929 0.0165088 -1.88638e-09 0.0277326 0.00847973 -1.82401e-14 6.66508e-09 -2.22571e-08 0.0005 1.46608e-07 
259 1 0.0223522 0.0158295 0.0156912 -0.00460883 -0.000109384 -0.000937605 5.5064e-09 5.38207e-09 -1.41631e-06 0.0005 1.46608e-07 
260 1 0.0188502 0.021651 0.0160747 0.0153318 0.00323883 -0.00200794 1.92145e-05 -5.86299e-06 9.18196e-06 0.0005 1.46608e-07 
261 1 0.0159008 0.0164736 0.0161632 0.00331746 0.00211983 -0.00563077 0 0 -1.43822e-06 0.0005 1.46608e-07 
262 1 0.0148787 0.0213908 0.0170498 0.00453724 0.00868102 0.0066609 0 0 -1.43822e-06 0.0005 1.46608e-07 
263 1 0.0171021 0.0210977 0.0178616 -0.0455703 0.0346613 -0.0161972 0 0 -1.43822e-06 0.0005 1.46608e-07 
264 1 0.0203727 0.0209049 0.0164406 -3.97535e-07 0.0273167 -0.0103166 5.39713e-10 -3.7433e-09 -2.34962e-08 0.0005 1.46608e-07 
265 1 0.0137074 0.0246204 0.0228458 0.0362245 -0.065254 -0.16969 3.10128e-07 -2.1155e-07 -8.57587e-07 0.0005 1.46608e-07 
266 1 0.0172511 0.0218915 0.0172113 0.000885998 0.0258518 -0.0101253 0 0 -1.43822e-06 0.0005 1.46608e-07 
267 1 0.016146 0.0235696 0.0170941 -0.00586251 -0.00971157 0.0125963 0 0 -1.43822e-06 0.0005 1.46608e-07 
268 1 0.0227356 0.021375 0.0152812 0.00389822 0.0113898 -0.00623019 -1.41103e-05 -2.74047e-06 4.4991e-06 0.0005 1.46608e-07 
269 1 0.0239664 0.0159677 0.014704 -0.000757155 0.00999025 0.00882307 -1.55042e-07 -1.11401e-07 3.41985e-07 0.0005 1.46608e-07 
270 1 0.0242704 0.0222452 0.0195339 -0.0161369 -0.0584571 -0.0974481 0 0 -1.43822e-06 0.0005 1.46608e-07 
271 1 0.0276386 0.0128915 0.0296091 -0.0353543 0.0232771 -0.066401 0 0 -1.43822e-06 0.0005 1.46608e-07 