LIGGGHTS (Version LIGGGHTS-PUBLIC 3.8.0, compiled 2026-05-30-04:17:57 by root, git commit 3d5c00f20519e6bb6eb6756f51f1ad36564e649d)
###################################Header for General commands#######################################################ELQUECORRIOMANANACONVREALMASCOF

atom_style	granular		#Simulation of particles

boundary	f f f			#fixed boundaries -> particles will be deleted if leaving the simulation box

units		si

communicate	multi vel yes		#default

newton		off			#default


###################################System variables##################################################################

#Definition of boundaries

variable xmin equal -0.02
variable xmax equal 0.43

variable ymin equal -0.02
variable ymax equal 0.06

variable zmin equal -0.02
variable zmax equal 0.07

#Definition of the timestep

variable dt equal 1e-6



###################################Specific variables for current simulation#########################################

variable natoms equal 2 				#1 -> particle #2 ->pipe and screw

####variable for material properties####

####Young Modulus####
variable	youngmodulus1	equal 	7e6
variable	youngmodulus2	equal 	2e8

####Poission ratio####
variable 	poission1	equal	0.30
variable 	poission2	equal	0.29

####variable for contact properties####

####coefficient of restitution####
variable	CoR11	equal	0.4
variable	CoR12	equal	0.5
variable	CoR21	equal	0.5
variable	CoR22	equal	0.45

####sliding friction coefficient####
variable	sf11	equal	0.65	#Particle-particle sliding friction coefficient
variable	sf12	equal	0.5
variable	sf21	equal	0.5
variable	sf22	equal	0.0


####rolling friction coefficient####
variable	rf11	equal	0.75	#Particle-particle rolling friction coefficient
variable	rf12	equal	0.6
variable	rf21	equal	0.6
variable	rf22	equal	0.0


####variable for particle####

#Number of particle radius
variable	nradii	equal	3

variable	radius1	equal	0.00005	#m
variable	radius2	equal	0.00005	#m
variable	radius3	equal	0.00005	#m

variable	frac1	equal	0.3945
variable	frac2	equal	0.4059
variable	frac3	equal	0.1996

variable	density	equal	280		#kg/m³


####filling parameters####

variable	filltime	equal	2.0		#s, prueba rápida: alimentar 2 s

variable	dischargetime	equal	110		#s, tiempo para que puedan salir partículas

variable	fillmass	equal	4.4e-8 		#kg, 2 g de material

variable	fillmassrate	equal	${fillmass}/${filltime}	#kg/s
variable	fillmassrate	equal	4.4e-08/${filltime}	
variable	fillmassrate	equal	4.4e-08/2	

variable	fillsteps	equal	${filltime}/${dt}
variable	fillsteps	equal	2/${dt}
variable	fillsteps	equal	2/1e-06

variable	dischargesteps	equal	${dischargetime}/${dt}
variable	dischargesteps	equal	110/${dt}
variable	dischargesteps	equal	110/1e-06



####screw velocities####

variable	screwPeriod	equal	1.029		#s, prueba rápida: 2 vueltas/s



###################################Definition of simulationbox#######################################################

region		reg block ${xmin} ${xmax} ${ymin} ${ymax} ${zmin} ${zmax} units box
region		reg block -0.02 ${xmax} ${ymin} ${ymax} ${zmin} ${zmax} units box
region		reg block -0.02 0.43 ${ymin} ${ymax} ${zmin} ${zmax} units box
region		reg block -0.02 0.43 -0.02 ${ymax} ${zmin} ${zmax} units box
region		reg block -0.02 0.43 -0.02 0.06 ${zmin} ${zmax} units box
region		reg block -0.02 0.43 -0.02 0.06 -0.02 ${zmax} units box
region		reg block -0.02 0.43 -0.02 0.06 -0.02 0.07 units box

processors 6 1 1

create_box	2 reg
Created orthogonal box = (-0.02 -0.02 -0.02) to (0.43 0.06 0.07)
  6 by 1 by 1 MPI processor grid


neighbor	0.0001 bin

neigh_modify	delay 0


#################################Definition of the contact models####################################################

pair_style gran model hertz tangential history rolling_friction epsd2

pair_coeff	* *

timestep ${dt}
timestep 1e-06

thermo 10000

fix		integrator all nve/sphere

fix		gravi all gravity 9.81 vector 0.0 0.0 -1.0


###################################Definition of Material properties#################################################

fix 		m1 all property/global youngsModulus peratomtype ${youngmodulus1} ${youngmodulus2}
fix 		m1 all property/global youngsModulus peratomtype 7000000 ${youngmodulus2}
fix 		m1 all property/global youngsModulus peratomtype 7000000 200000000

fix 		m2 all property/global poissonsRatio peratomtype ${poission1} ${poission2}
fix 		m2 all property/global poissonsRatio peratomtype 0.3 ${poission2}
fix 		m2 all property/global poissonsRatio peratomtype 0.3 0.29

fix 		m3 all property/global coefficientRestitution peratomtypepair ${natoms} ${CoR11} ${CoR12} ${CoR21} ${CoR22}
fix 		m3 all property/global coefficientRestitution peratomtypepair 2 ${CoR11} ${CoR12} ${CoR21} ${CoR22}
fix 		m3 all property/global coefficientRestitution peratomtypepair 2 0.4 ${CoR12} ${CoR21} ${CoR22}
fix 		m3 all property/global coefficientRestitution peratomtypepair 2 0.4 0.5 ${CoR21} ${CoR22}
fix 		m3 all property/global coefficientRestitution peratomtypepair 2 0.4 0.5 0.5 ${CoR22}
fix 		m3 all property/global coefficientRestitution peratomtypepair 2 0.4 0.5 0.5 0.45

fix 		m4 all property/global coefficientFriction peratomtypepair ${natoms} ${sf11} ${sf12} ${sf21} ${sf22}
fix 		m4 all property/global coefficientFriction peratomtypepair 2 ${sf11} ${sf12} ${sf21} ${sf22}
fix 		m4 all property/global coefficientFriction peratomtypepair 2 0.65 ${sf12} ${sf21} ${sf22}
fix 		m4 all property/global coefficientFriction peratomtypepair 2 0.65 0.5 ${sf21} ${sf22}
fix 		m4 all property/global coefficientFriction peratomtypepair 2 0.65 0.5 0.5 ${sf22}
fix 		m4 all property/global coefficientFriction peratomtypepair 2 0.65 0.5 0.5 0

fix 		m5 all property/global coefficientRollingFriction peratomtypepair ${natoms} ${rf11} ${rf12} ${rf21} ${rf22}
fix 		m5 all property/global coefficientRollingFriction peratomtypepair 2 ${rf11} ${rf12} ${rf21} ${rf22}
fix 		m5 all property/global coefficientRollingFriction peratomtypepair 2 0.75 ${rf12} ${rf21} ${rf22}
fix 		m5 all property/global coefficientRollingFriction peratomtypepair 2 0.75 0.6 ${rf21} ${rf22}
fix 		m5 all property/global coefficientRollingFriction peratomtypepair 2 0.75 0.6 0.6 ${rf22}
fix 		m5 all property/global coefficientRollingFriction peratomtypepair 2 0.75 0.6 0.6 0



###################################Generation and Loading of the Geometry .stl#######################################
fix case all mesh/surface file case_remesh_fixed.stl type 2 heal auto_remove_duplicates scale 1.0 curvature 1e-5 curvature_tolerant yes

fix screw all mesh/surface file screw_simplified_fixed.stl type 2 scale 1.0 curvature 1e-5 curvature_tolerant yes

fix 		walls 		all wall/gran model hertz tangential history rolling_friction epsd2 mesh n_meshes 2 meshes case screw

fix		Movescrew	all move/mesh mesh screw rotate origin 0.2024435 0.019051 0.011497 axis -1. 0. 0. period ${screwPeriod}
fix		Movescrew	all move/mesh mesh screw rotate origin 0.2024435 0.019051 0.011497 axis -1. 0. 0. period 1.029

fix feed all mesh/surface file feed.stl type 2 scale 1.0 curvature 1e-5 curvature_tolerant yes

fix outlet all mesh/surface file outlet_1.stl type 2 scale 1.0 curvature 1e-5 curvature_tolerant yes


###################################Generation and Insertion of the particles#########################################

fix pts1 all particletemplate/sphere 10487 atom_type 1 density constant ${density} radius constant ${radius1} volume_limit 1e-18
fix pts1 all particletemplate/sphere 10487 atom_type 1 density constant 280 radius constant ${radius1} volume_limit 1e-18
fix pts1 all particletemplate/sphere 10487 atom_type 1 density constant 280 radius constant 5e-05 volume_limit 1e-18

fix pts2 all particletemplate/sphere 11887 atom_type 1 density constant ${density} radius constant ${radius2} volume_limit 1e-18
fix pts2 all particletemplate/sphere 11887 atom_type 1 density constant 280 radius constant ${radius2} volume_limit 1e-18
fix pts2 all particletemplate/sphere 11887 atom_type 1 density constant 280 radius constant 5e-05 volume_limit 1e-18

fix pts3 all particletemplate/sphere 16561 atom_type 1 density constant ${density} radius constant ${radius3} volume_limit 1e-18
fix pts3 all particletemplate/sphere 16561 atom_type 1 density constant 280 radius constant ${radius3} volume_limit 1e-18
fix pts3 all particletemplate/sphere 16561 atom_type 1 density constant 280 radius constant 5e-05 volume_limit 1e-18

fix 		pdd1 all particledistribution/discrete 32452867 ${nradii} pts1 ${frac1} pts2 ${frac2} pts3 ${frac3}
fix 		pdd1 all particledistribution/discrete 32452867 3 pts1 ${frac1} pts2 ${frac2} pts3 ${frac3}
fix 		pdd1 all particledistribution/discrete 32452867 3 pts1 0.3945 pts2 ${frac2} pts3 ${frac3}
fix 		pdd1 all particledistribution/discrete 32452867 3 pts1 0.3945 pts2 0.4059 pts3 ${frac3}
fix 		pdd1 all particledistribution/discrete 32452867 3 pts1 0.3945 pts2 0.4059 pts3 0.1996

fix		ins_mesh all mesh/surface/planar file feed.stl type 1 scale 1.0

fix 		ins all insert/stream seed 15485863 distributiontemplate pdd1         	mass ${fillmass} massrate ${fillmassrate} overlapcheck yes all_in yes vel constant 0 0 -0.03         	insertion_face ins_mesh extrude_length 0.015
fix 		ins all insert/stream seed 15485863 distributiontemplate pdd1         	mass 4.4e-08 massrate ${fillmassrate} overlapcheck yes all_in yes vel constant 0 0 -0.03         	insertion_face ins_mesh extrude_length 0.015
fix 		ins all insert/stream seed 15485863 distributiontemplate pdd1         	mass 4.4e-08 massrate 2.2e-08 overlapcheck yes all_in yes vel constant 0 0 -0.03         	insertion_face ins_mesh extrude_length 0.015


################################### Particle Residence Time Track#########################################

fix 	rt_outlet	all massflow/mesh mesh outlet vec_side 0 0 -1 file rt_outlet.txt writeTime

fix 	rt_inlet	all massflow/mesh mesh feed vec_side 0 0 -1 file rt_inlet.txt writeTime


###################################Outlet mass flow track#########################################

fix	mfout	all massflow/mesh mesh outlet vec_side 0 0 -1

fix	mfin	all massflow/mesh mesh feed vec_side 0 0 -1


variable 	time equal step*dt

variable 	in_mass_flow equal	f_mfin[3]

variable 	out_mass_flow equal	f_mfout[3]

fix mass_flow_rate all print 5000 "${time},${in_mass_flow},${out_mass_flow}" screen no title "t,in_mass_flow,out_mass_flow" file massflow.csv

###################################Dumping of the data for post-processing to visualize############################

#fix ts_check all check/timestep/gran 1000 0.1 0.1

shell 	mkdir -p post

variable dumptime equal 0.2		#guarda cada 0.05 s

variable dumpstep equal ${dumptime}/${dt}
variable dumpstep equal 0.2/${dt}
variable dumpstep equal 0.2/1e-06

dump	dmpparticle all custom ${dumpstep} post/particles_*.liggghts id type x y z vx vy vz fx fy fz radius mass
dump	dmpparticle all custom 200000 post/particles_*.liggghts id type x y z vx vy vz fx fy fz radius mass

dump_modify	dmpparticle sort id

dump	dmpscrew	all	mesh/stl ${dumpstep} post/screw_*.stl screw
dump	dmpscrew	all	mesh/stl 200000 post/screw_*.stl screw


####################################RUN the simulation filling and discharge###########################################################

run	${fillsteps}
run	2000000
Setting up run at Tue Jun  2 04:25:03 2026

INFO: Particle insertion ins: 75.030187 particles every 500000 steps - particle rate 150.060375, (mass rate 2.200000e-08)
      300 particles (mass 4.398230e-08) within 1500000 steps
Memory usage per processor = 2133.46 Mbytes
    Step    Atoms         KinEng            CPU 
       0        0              0              0 
INFO: Particle insertion ins: inserted 75 particle templates (mass 1.099557e-08) at step 1
 - a total of 75 particle templates (mass 1.099557e-08) inserted so far.
   10000       75  5.6353356e-12      93.319506 
   20000       75  7.9860233e-12      214.32161 
   30000       75  1.4215563e-11      346.82147 
   40000       75  1.4358305e-11       479.8823 
   50000       75  1.2630981e-11      622.40142 
   60000       75   1.454915e-11      773.44479 
   70000       75  1.9379027e-11      867.28018 
   80000       75  2.0506154e-11       956.6257 
   90000       75  2.1924538e-11      1090.5638 
  100000       75  1.1521552e-11      1364.0805 
  110000       75  1.3744684e-11       1823.277 
  120000       75  2.7670672e-11      2484.4536 
  130000       75  1.7255603e-11      3018.4335 
  140000       75   1.945307e-11      3376.9559 
  150000       75  2.7739013e-11      4082.0897 
  160000       75  3.6555196e-11      4829.2364 
  170000       75  2.9049652e-11      5472.5302 
  180000       75  2.2110661e-11      5625.8578 
  190000       75  1.9819884e-11      5733.9535 
  200000       75   2.609731e-11      5843.8227 
  210000       74  2.3330579e-11      6181.4771 
  220000       74  2.6826805e-11      6289.3726 
  230000       74  3.7083924e-11      6420.4652 
  240000       74  1.4229888e-11      6535.8436 
  250000       74  1.4524421e-11      6635.2052 
  260000       74  1.9587957e-11       6727.707 
  270000       74  1.9323152e-11      6832.1012 
  280000       74  1.5863463e-11      6933.1873 
  290000       74  2.5471216e-11      7031.2716 
  300000       74  2.9556467e-11      7140.5578 
  310000       74  4.3951954e-06      7546.9179 
  320000       73  3.0830075e-11      8058.8517 
  330000       73   2.687542e-11      8172.1174 
  340000       73  3.0937575e-11      8276.1138 
  350000       73  3.3391211e-11      8387.6638 
  360000       73  1.5563969e-11      8493.6286 
  370000       73  1.6862013e-11      8585.6306 
  380000       73  2.8997498e-11      8689.6776 
  390000       73   1.884941e-11      8794.9391 
  400000       73  1.7238342e-11      8888.6464 
  410000       73    1.74703e-11      8998.5411 
  420000       73  2.1372989e-11      9109.0383 
  430000       73    1.42024e-11      9215.4441 
  440000       73  1.8486794e-11      9316.0846 
  450000       73  2.9735064e-11       9425.968 
  460000       73  3.2549541e-11      9554.0748 
  470000       73  3.2694172e-11      9688.4299 
  480000       73  2.3435807e-11      9798.4349 
  490000       73  2.9264293e-11      9900.3317 
  500000       73  2.2716997e-11      10023.344 
INFO: Particle insertion ins: inserted 75 particle templates (mass 1.099557e-08) at step 500001
 - a total of 150 particle templates (mass 2.199115e-08) inserted so far.
  510000      147  2.9228406e-11       10637.59 
  520000      147  3.1896144e-11      10741.021 
  530000      147  3.2408245e-11      10841.366 
  540000      147  3.1172179e-11      10950.128 
  550000      147  8.0979159e-11      11246.347 
  560000      147  5.0330541e-11      11409.456 
  570000      147  3.9532802e-11      11533.629 
  580000      147  3.1244562e-11      11639.969 
  590000      147   2.914016e-11      11738.509 
  600000      147  3.1513822e-11      11856.948 
  610000      147  3.1870637e-11      11964.622 
  620000      146  3.8494149e-11      12551.577 
  630000      146  2.9685175e-11      12675.333 
  640000      146   2.497827e-11      12783.894 
  650000      146  2.4197674e-11      12884.312 
  660000      146  1.9566763e-11      12982.611 
  670000      146  2.3836815e-11      13078.904 
  680000      146  3.0618493e-11      13181.509 
  690000      146  2.7358075e-11      13295.077 
  700000      146  1.7969663e-11      13404.937 
  710000      146  2.2996017e-11      13506.194 
  720000      146  2.4882747e-11       13611.86 
  730000      146  2.2959947e-11      13724.278 
  740000      146  2.8396714e-11      13849.366 
  750000      146  3.8503539e-11      13952.474 
  760000      146  2.9948474e-11      14065.542 
  770000      146  3.8660877e-11      14175.569 
  780000      145  3.6660884e-11      14552.367 
  790000      144  3.0368518e-11      15610.144 
  800000      144  2.4101837e-11      15728.718 
  810000      144  3.1388257e-11      15839.822 
  820000      144  2.8541392e-11       15950.71 
  830000      144  3.4542627e-11       16056.61 
  840000      144  1.9637599e-11      16165.117 
  850000      144  3.0338503e-11      16292.117 
  860000      144  2.8261911e-11      16415.934 
  870000      144  3.1133023e-11      16523.637 
  880000      144  2.5444471e-11      16640.838 
  890000      144  2.4538681e-11      16752.479 
  900000      144  2.1132553e-11      16864.864 
  910000      144  2.7558961e-11       16966.47 
  920000      144  3.9767156e-10      19028.089 
  930000      144  4.5135812e-11      19388.989 
  940000      143  2.4511079e-11      19955.483 
  950000      141   2.434988e-11      20747.059 
  960000      141  2.4044639e-11       20844.76 
  970000      141  2.3311249e-11      20955.705 
  980000      141  4.9358307e-10      22004.873 
  990000      141  6.5951312e-11      22497.236 
 1000000      141  4.4830021e-11      23151.107 
INFO: Particle insertion ins: inserted 76 particle templates (mass 1.114218e-08) at step 1000001
 - a total of 226 particle templates (mass 3.313333e-08) inserted so far.
 1010000      217  3.2221373e-11      23846.931 
 1020000      217  4.0154242e-11      24383.335 
 1030000      217  4.0018406e-11      24781.307 
 1040000      217  3.2936719e-11      24882.995 
 1050000      217  3.6679812e-11      25065.642 
 1060000      217  6.2125081e-11      25734.735 
 1070000      217  4.1703579e-11      26278.302 
 1080000      217  4.3692016e-11      26712.075 
 1090000      216  3.2831325e-11      28363.769 
 1100000      216    2.81957e-11      28813.868 
 1110000      216  2.4770112e-11      29150.997 
 1120000      216  2.1653759e-11      29587.256 
 1130000      216  2.3150069e-11      30004.763 
 1140000      216  2.1239512e-11      30420.408 
 1150000      216   2.816931e-11      30801.173 
 1160000      216  2.7783904e-11      30924.884 
 1170000      216  2.1632609e-11       31038.34 
 1180000      216   2.038308e-11      31148.355 
 1190000      216    8.29806e-11      32030.273 
 1200000      216  7.8568183e-11      32602.795 
 1210000      215  8.2750199e-11      34344.727 
 1220000      215  8.5258977e-11      35191.201 
 1230000      215    8.04935e-11      36085.351 
 1240000      214  1.7563536e-11       36242.35 
 1250000      214  1.9266813e-11      36333.248 
 1260000      214  1.7908386e-11      36419.804 
 1270000      214  2.1732057e-11      36502.247 
 1280000      214  1.8791749e-11      36581.081 
 1290000      214  3.2133687e-11      36666.813 
 1300000      214  2.8442436e-11      36949.488 
 1310000      214  3.5665003e-11      37294.887 
 1320000      214  2.7581169e-11      37656.223 
 1330000      214  3.0580009e-11      37917.998 
 1340000      214  3.1443883e-11      38168.069 
 1350000      214  2.3905565e-11      38374.862 
 1360000      214  3.0828186e-11      38481.184 
 1370000      214  2.7098569e-11      38594.529 
 1380000      214  2.4842579e-11      38700.685 
 1390000      214  2.0915696e-11      38808.041 
 1400000      214  2.2769983e-11      38924.257 
 1410000      214  2.5437578e-11      39032.617 
 1420000      214  2.6235796e-11      39149.635 
 1430000      214  2.8611434e-11      39257.859 
 1440000      214  2.3243293e-11      39372.893 
 1450000      214  2.9548497e-11       39493.12 
 1460000      214  2.3179302e-11       39587.96 
 1470000      214  1.6315006e-11      39682.828 
 1480000      214   1.832396e-11      39777.277 
 1490000      214  1.3469088e-11      39860.049 
 1500000      214  2.9274717e-11      39944.856 
INFO: Particle insertion ins: inserted 74 particle templates (mass 1.084897e-08) at step 1500001
 - a total of 300 particle templates (mass 4.398230e-08) inserted so far.
 1510000      288  2.6713082e-11      40045.269 
 1520000      288  3.5677081e-11      40236.617 
 1530000      288  3.4642831e-11      40474.201 
 1540000      288  3.1777839e-11      40642.813 
 1550000      288  2.7130987e-11      40841.508 
 1560000      288  2.8863952e-11      41041.238 
 1570000      288  3.1870459e-11      41212.474 
 1580000      288  3.0624697e-11      41410.229 
 1590000      288  2.8212556e-11      41625.506 
 1600000      288  2.7965083e-11      41796.393 
 1610000      288   2.873435e-11      41998.381 
 1620000      288  1.9176865e-11      42201.474 
 1630000      288  1.7313287e-11      42356.907 
 1640000      288  2.3033604e-11      42524.186 
 1650000      288  2.7921241e-11      42710.923 
 1660000      288  2.5882203e-11      42904.746 
 1670000      288  1.9601766e-11      43008.415 
 1680000      288  2.8563911e-11      43143.705 
 1690000      288   2.184274e-11      43344.403 
 1700000      288  2.3314966e-11      43533.715 
 1710000      288  3.2208804e-11      43655.518 
 1720000      288  2.9889023e-11      43753.433 
 1730000      288  2.1309202e-11      43841.279 
 1740000      288  1.7420192e-06      43995.658 
 1750000      287  3.8431432e-11      44678.682 
 1760000      287  2.1514893e-11      44770.151 
 1770000      287  2.4295877e-11      44862.512 
 1780000      287  2.9671972e-11      44956.244 
 1790000      287  2.7641908e-11      45046.582 
 1800000      287   3.064943e-11      45138.726 
 1810000      287   2.246248e-11       45231.15 
 1820000      287  2.4364786e-11      45454.444 
 1830000      287  3.8135358e-11      45689.359 
 1840000      287  2.0335315e-11      45964.031 
 1850000      287  3.0212061e-11      46267.985 
 1860000      287  4.0630072e-11      46564.843 
 1870000      287  3.7038239e-11      46887.881 
 1880000      287   1.500728e-09       48308.01 
 1890000      286   9.141716e-10      49303.483 
 1900000      286  3.1204649e-10       49831.39 
 1910000      286  1.8489189e-10      50207.189 
 1920000      286  1.0688398e-10      50503.496 
 1930000      286  7.8178487e-11      50729.681 
 1940000      286  6.5041979e-11      50912.679 
 1950000      286  5.4971673e-11      51072.352 
 1960000      286  4.6307122e-11       51218.21 
 1970000      286  4.1445082e-11      51357.192 
 1980000      286  1.9472191e-08      51925.984 
 1990000      285  2.3517604e-10      53765.661 
 2000000      285  5.4720882e-11      53975.602 
Loop time of 53975.6 on 6 procs for 2000000 steps with 285 atoms, finish time Tue Jun  2 19:25:13 2026


Pair  time (%) = 33.0827 (0.061292)
Neigh time (%) = 18105.7 (33.5442)
Comm  time (%) = 4189.89 (7.76256)
Outpt time (%) = 79.2429 (0.146812)
Other time (%) = 31567.7 (58.4852)

Nlocal:    47.5 ave 283 max 0 min
Histogram: 5 0 0 0 0 0 0 0 0 1
Nghost:    0 ave 0 max 0 min
Histogram: 6 0 0 0 0 0 0 0 0 0
Neighs:    159.833 ave 959 max 0 min
Histogram: 5 0 0 0 0 0 0 0 0 1

Total # of neighbors = 959
Ave neighs/atom = 3.36491
Neighbor list builds = 23868
Dangerous builds = 6397

unfix	ins

run	${dischargesteps}
run	110000000
Setting up run at Tue Jun  2 19:25:14 2026

Memory usage per processor = 2138.77 Mbytes
    Step    Atoms         KinEng            CPU 
 2000000      285  5.4720882e-11              0 
 2010000      285  4.2019175e-11      138.87081 
 2020000      285  3.3512191e-10      989.59273 
 2030000      285  1.2054045e-10      1366.1107 
 2040000      285  7.9024027e-11      1597.4113 
 2050000      285  3.9215959e-11      1746.3194 
 2060000      285  3.1144596e-11      1874.2491 
 2070000      285  2.2052388e-11      1987.4835 
 2080000      284  1.9815652e-11      2550.7463 
 2090000      284  1.2875328e-11      2651.5255 
 2100000      284  9.4948566e-12      2744.6356 
 2110000      284  9.9116331e-12      2817.5846 
 2120000      284  1.0595819e-11      2889.8902 
 2130000      284  6.8594898e-12      2976.7522 
 2140000      284  4.3656052e-12      3054.2905 
 2150000      284   4.487155e-12      3124.2243 
 2160000      284  1.7503138e-12      3184.7818 
 2170000      284  2.6571841e-12      3248.7177 
 2180000      284  2.0214373e-12      3326.9619 
 2190000      284  3.0496107e-12      3394.4821 
 2200000      284  4.3888189e-12      3479.5058 
 2210000      284  3.2422427e-12       3554.703 
 2220000      284  1.7089017e-12      3635.5061 
 2230000      284  3.1075903e-12      3699.1424 
 2240000      284  3.7491284e-12      3781.9783 
 2250000      284  3.6214041e-12      3861.4595 
 2260000      284  2.4797546e-12       3935.677 
 2270000      284  1.1336094e-12      3989.8897 
 2280000      284  1.4986904e-12      4043.6277 
 2290000      284  2.4387414e-12      4107.7659 
 2300000      284  3.9875287e-12      4187.5837 
 2310000      284  2.9415296e-12       4253.521 
 2320000      284  3.9430947e-12      4330.4583 
 2330000      284  1.4556057e-12      4398.9095 
 2340000      284  1.3321642e-12      4465.4201 
 2350000      284  8.5929267e-13      4508.8258 
 2360000      284  2.0448207e-12      4557.3465 
 2370000      284   1.946031e-12      4623.9551 
 2380000      284  2.8040177e-12      4809.4958 
 2390000      284  1.3171969e-12      5059.8531 
 2400000      284  1.6826839e-12      5124.9996 
 2410000      284  1.9901363e-12      5344.0842 
 2420000      284  2.8140753e-12      5527.0781 
 2430000      284   4.510554e-12       5672.767 
 2440000      284  1.4567933e-12       5738.049 
 2450000      284  7.6951613e-13      5785.3696 
 2460000      284  7.0826272e-13       5829.896 
 2470000      284  7.2867297e-13      5867.7621 
 2480000      284  7.5158488e-13      5903.6145 
 2490000      284  7.2358084e-13      5945.6568 
 2500000      284  7.0483474e-13       5981.325 
 2510000      284  7.1436591e-13      6020.9369 
 2520000      284  7.5584468e-13      6062.2173 
 2530000      284  7.9833675e-13      6100.2868 
 2540000      284  1.4851929e-12      6141.9051 
 2550000      284  3.6539509e-12      6202.4549 
 2560000      284   4.142066e-12      6282.8017 
 2570000      284  3.4437431e-12      6351.9281 
 2580000      284  3.3301421e-12      6421.7763 
 2590000      284  1.5290297e-12        6484.98 
 2600000      284  1.0705209e-12      6553.1415 
 2610000      284  7.6739147e-13      6603.2147 
 2620000      284  7.4832275e-13       6648.946 
 2630000      284  7.4976589e-13      6692.7619 
 2640000      284  7.2651461e-13       6735.109 
 2650000      284  7.8279447e-13      6771.7368 
 2660000      284    7.90305e-13      6810.0886 
 2670000      284  7.7217771e-13      6846.5758 
 2680000      284  7.7825473e-13      6886.8426 
 2690000      284  7.3546913e-13      6926.5023 
 2700000      284  7.3290577e-13      6963.3562 
 2710000      284  7.2376409e-13       7004.171 
 2720000      284  7.0837497e-13      7044.7532 
 2730000      284  7.3447076e-13      7085.0116 
 2740000      284  7.6868441e-13      7128.4678 
 2750000      284   7.294994e-13      7168.3332 
 2760000      284   7.182266e-13      7206.8425 
 2770000      284  7.5566764e-13      7245.7324 
 2780000      284  8.3276404e-13      7371.7383 
 2790000      284  8.6086479e-13       7607.875 
 2800000      284  8.0417041e-13      7684.7989 
 2810000      284   7.774718e-13      8020.4581 
 2820000      284  7.5167054e-13      8147.7752 
 2830000      284    7.42243e-13      8409.1761 
 2840000      284   7.206477e-13      8631.8428 
 2850000      284  7.1157556e-13      8786.8414 
 2860000      284  7.4771484e-13      9025.2887 
 2870000      284  7.8579472e-13      9159.5791 
 2880000      284  7.4451514e-13       9192.685 
 2890000      284  7.5540988e-13      9232.1007 
 2900000      284   7.467453e-13       9336.171 
 2910000      284  7.9527411e-13      9603.6295 
 2920000      284   8.328514e-13      9649.7136 
 2930000      284   7.718769e-13      9683.7705 
 2940000      284  7.6918812e-13      9724.2853 
 2950000      284  7.5618885e-13      9763.0276 
 2960000      284  7.4431025e-13      9801.9362 
 2970000      284   7.235525e-13       9843.948 
 2980000      284  7.2212808e-13      9886.7216 
 2990000      284  7.5629958e-13      9928.2082 
 3000000      284  7.9958828e-13      9971.1821 
 3010000      284  7.5510198e-13      10010.709 
 3020000      284  7.9296653e-13      10051.261 
 3030000      284  7.9698511e-13      10091.242 
 3040000      284  8.4572597e-13       10138.18 
 3050000      284   8.687075e-13      10188.072 
 3060000      284  8.6059215e-13      10228.824 
 3070000      284  7.5307276e-13      10269.903 
 3080000      284  7.7209188e-13      10310.926 
 3090000      284  7.3702238e-13      10348.977 
 3100000      284    7.10718e-13      10386.951 
 3110000      284  7.1995146e-13      10418.454 
 3120000      284  7.4960528e-13      10448.982 
 3130000      284    7.57404e-13      10485.118 
 3140000      284  7.6868883e-13      10514.341 
 3150000      284  7.3560198e-13      10546.796 
 3160000      284  7.7707634e-13      10583.548 
 3170000      284  7.6974528e-13      10628.267 
 3180000      284  8.1154437e-13      10666.987 
 3190000      284  7.6397027e-13      10710.066 
 3200000      284  7.5945006e-13      10753.388 
 3210000      284  7.6111291e-13      10790.203 
 3220000      284  7.3940595e-13      10826.784 
 3230000      284  7.2509721e-13      10866.118 
 3240000      284  7.3515805e-13      10916.688 
 3250000      284  7.5598425e-13      10964.401 
 3260000      284  7.4673415e-13      11017.907 
 3270000      284  7.5185783e-13       11068.04 
 3280000      284  7.5889575e-13      11118.349 
 3290000      284   8.214521e-13      11172.382 
 3300000      284  8.1592146e-13      11223.387 
 3310000      284   8.032093e-13      11277.081 
 3320000      284    8.08808e-13      11328.047 
 3330000      284  7.5469637e-13      11378.253 
 3340000      284  7.7703367e-13      11430.111 
 3350000      284  7.4330821e-13      11481.319 
 3360000      284  7.1609993e-13      11532.122 
 3370000      284  7.3338355e-13      11575.581 
 3380000      284   7.556606e-13      11626.605 
 3390000      284  7.2324372e-13      11677.678 
 3400000      284  7.3784192e-13      11736.304 
 3410000      284  7.9955592e-13      11787.118 
 3420000      284  7.3857954e-13      11837.067 
 3430000      284  7.5479377e-13      11885.468 
 3440000      284  7.4546373e-13      11930.166 
 3450000      284  7.6140923e-13      11981.105 
 3460000      284  7.6707755e-13      12031.675 
 3470000      284  7.7097653e-13      12082.249 
 3480000      284  7.3315498e-13      12132.947 
 3490000      284  7.2358885e-13      12183.941 
 3500000      284  7.6090916e-13      12233.778 
 3510000      284  7.9390891e-13      12280.825 
 3520000      284  7.3405226e-13      12334.633 
 3530000      284  7.1692656e-13      12385.067 
 3540000      284  8.2200997e-13      12438.123 
 3550000      284  9.2375896e-13      12498.389 
 3560000      284  9.6501604e-13       12562.01 
 3570000      284  8.9597829e-13      12609.147 
 3580000      284  7.8221263e-13      12649.568 
 3590000      284  7.5727531e-13      12692.051 
 3600000      284  7.7666982e-13      12751.789 
 3610000      284  7.3824802e-13      12803.137 
 3620000      284  7.2041217e-13       12853.41 
 3630000      284  7.5602947e-13      12904.288 
 3640000      284   7.672004e-13      12955.448 
 3650000      284  7.6539606e-13      13007.847 
 3660000      284  7.1704935e-13      13044.489 
 3670000      284  6.9502034e-13      13084.679 
 3680000      284  7.3633115e-13      13123.734 
 3690000      284  7.6742751e-13      13155.594 
 3700000      284   8.003023e-13      13193.939 
 3710000      284  7.7518453e-13      13235.518 
 3720000      284  7.6799548e-13       13272.92 
 3730000      284  7.3985766e-13      13308.446 
 3740000      284  7.2172797e-13      13340.846 
 3750000      284  7.1511456e-13      13381.477 
 3760000      284  7.4421165e-13      13411.808 
 3770000      284  7.6117884e-13      13448.083 
 3780000      284  7.3431672e-13      13486.278 
 3790000      284  7.2945298e-13      13526.097 
 3800000      284  7.3452033e-13      13569.481 
 3810000      284  7.5965126e-13      13610.577 
 3820000      284  8.1218358e-13       13656.13 
 3830000      284  7.6861286e-13      13708.338 
 3840000      284  7.8270872e-13      13756.714 
 3850000      284  7.8140047e-13       13853.07 
 3860000      284  7.7352679e-13      14176.343 
 3870000      284  7.3988281e-13      14596.601 
 3880000      284  7.3774591e-13      14815.808 
 3890000      284  7.4503429e-13      14867.224 
 3900000      284  7.6885742e-13      14917.713 
 3910000      284   7.359067e-13      14968.374 
 3920000      284  7.8596765e-13      15018.974 
 3930000      284  8.3216887e-13      15072.835 
 3940000      284  8.2344462e-13      15135.363 
 3950000      284  8.2777214e-13      15191.756 
 3960000      284  8.2158988e-13       15242.98 
 3970000      284  7.6748936e-13       15294.21 
 3980000      284  7.9306997e-13      15345.974 
 3990000      284  7.6374165e-13      15398.078 
 4000000      284  7.4785389e-13      15456.273 
 4010000      284  7.4474183e-13      15504.752 
 4020000      284  7.5516408e-13      15553.433 
 4030000      284  7.9539335e-13      15597.724 
 4040000      284  7.5257112e-13      15634.621 
 4050000      284  7.5508416e-13      15673.609 
 4060000      284   8.108024e-13      15711.338 
 4070000      284  7.9125789e-13      15755.267 
 4080000      284   8.058906e-13      15798.122 
 4090000      284   8.177654e-13      15913.112 
 4100000      284  7.7101211e-13      16083.926 
 4110000      284  7.9647299e-13      16277.394 
 4120000      284  7.5919415e-13      16441.843 
 4130000      284  7.4812852e-13      16604.094 
 4140000      284  7.6981396e-13      16823.147 
 4150000      284  7.8771305e-13      17000.701 
 4160000      284  7.8804844e-13      17108.293 
 4170000      284  8.1859787e-13      17147.123 
 4180000      284  7.8446131e-13      17198.313 
 4190000      284  8.2021028e-13      17429.473 
 4200000      284  8.5188317e-13       17475.31 
 4210000      284  8.0462398e-13      17515.514 
 4220000      284  8.1441496e-13      17551.289 
 4230000      284  8.0637687e-13      17590.812 
 4240000      284  8.0922253e-13      17631.037 
 4250000      284  7.9077057e-13      17672.188 
 4260000      284  7.6156094e-13      17708.228 
 4270000      284  7.6556086e-13       17745.81 
 4280000      284  7.7660089e-13      17784.747 
 4290000      284  7.5754745e-13      17826.116 
 4300000      284  7.9945607e-13       17867.85 
 4310000      284  7.8948091e-13      17910.216 
 4320000      284  8.3411294e-13      17954.788 
 4330000      284  8.5535518e-13      17993.465 
 4340000      284   8.184394e-13      18030.563 
 4350000      284  7.6801746e-13       18065.98 
 4360000      284   8.049478e-13      18101.427 
 4370000      284  7.9992168e-13      18144.396 
 4380000      284  7.6487238e-13      18184.295 
 4390000      284  7.4029589e-13      18224.368 
 4400000      284  7.6700637e-13      18265.641 
 4410000      284  7.6089551e-13      18306.997 
 4420000      284  7.3708051e-13      18341.268 
 4430000      284  7.9700657e-13      18373.445 
 4440000      284  7.8258002e-13      18415.584 
 4450000      284  8.5981876e-13      18457.677 
 4460000      284  8.1165419e-13      18499.555 
 4470000      284  8.3554335e-13       18545.04 
 4480000      284  7.6484269e-13      18585.367 
 4490000      284  8.0017052e-13      18626.101 
 4500000      284  7.9056878e-13      18666.325 
 4510000      284  7.5290332e-13      18703.947 
 4520000      284  7.2621814e-13      18741.655 
 4530000      284  7.3926496e-13      18781.758 
 4540000      284  7.5027917e-13      18820.749 
 4550000      284  8.0557285e-13      18859.709 
 4560000      284  7.7828435e-13      18896.252 
 4570000      284   8.139683e-13      18940.868 
 4580000      284  7.0708276e-13      18981.548 
 4590000      284   7.473808e-13      19018.971 
 4600000      284  7.6147117e-13      19061.885 
 4610000      284  7.8735671e-13      19098.681 
 4620000      284  7.9223621e-13      19135.792 
 4630000      284  7.8419614e-13      19174.807 
 4640000      284  7.5462822e-13      19211.207 
 4650000      284  7.2395128e-13       19249.41 
 4660000      284  7.2964945e-13      19283.531 
 4670000      284    7.58141e-13      19323.612 
 4680000      284  7.8029151e-13      19365.202 
 4690000      284  7.9686887e-13      19407.747 
 4700000      284  8.3866064e-13      19451.365 
 4710000      284  7.5903811e-13      19494.189 
 4720000      284  7.8943577e-13      19532.078 
 4730000      284  7.6221094e-13      19565.873 
 4740000      284  8.0640115e-13      19603.354 
 4750000      284  8.0147155e-13      19640.714 
 4760000      284  7.8736297e-13      19680.365 
 4770000      284  7.4018469e-13      19716.688 
 4780000      284  7.2819081e-13      19756.992 
 4790000      284  7.2996059e-13      19797.293 
 4800000      284  7.5962096e-13      19839.258 
 4810000      284  7.9461936e-13      19879.991 
 4820000      284   7.635392e-13      19913.298 
 4830000      284    8.02387e-13      19954.346 
 4840000      284  7.3299399e-13      20005.528 
 4850000      284  7.6559365e-13      20057.531 
 4860000      284   7.689976e-13      20109.749 
 4870000      284   8.106636e-13      20154.548 
 4880000      284  8.2086439e-13      20207.204 
 4890000      284  8.0283818e-13      20259.348 
 4900000      284  7.6043815e-13      20307.289 
 4910000      284  7.2739431e-13      20357.254 
 4920000      284  7.3649865e-13      20409.183 
 4930000      284  7.8151942e-13      20460.438 
 4940000      284  8.1296346e-13       20511.82 
 4950000      284  7.8135827e-13      20567.753 
 4960000      284  8.1879593e-13      20618.473 
 4970000      284  7.7039173e-13      20673.004 
 4980000      284  7.8499285e-13      20724.966 
 4990000      284  7.6507252e-13      20769.743 
 5000000      284  8.0885877e-13      20829.764 
 5010000      284  8.0761873e-13      20879.523 
 5020000      284  7.7825877e-13      20926.937 
 5030000      284   7.568601e-13      20962.129 
 5040000      284  7.3414235e-13      21002.505 
 5050000      284  7.3512819e-13      21044.392 
 5060000      284  7.9359055e-13      21082.832 
 5070000      284   7.988522e-13      21126.251 
 5080000      284  7.6675741e-13      21166.058 
 5090000      284  7.2888606e-13      21203.805 
 5100000      284   7.265262e-13      21247.529 
 5110000      284  7.6270291e-13      21287.526 
 5120000      284  7.6512002e-13      21330.201 
 5130000      284  8.1188794e-13      21385.082 
 5140000      284  8.0444957e-13      21434.468 
 5150000      284  7.9194359e-13      21512.485 
 5160000      284  7.7958556e-13      21749.615 
 5170000      284  7.8574931e-13      21999.268 
 5180000      284  7.7096943e-13      22206.463 
 5190000      284  7.8459424e-13       22402.77 
 5200000      284  8.3472511e-13       22482.09 
 5210000      284  8.0580116e-13      22536.839 
 5220000      284  7.8891178e-13      22591.433 
 5230000      284  7.6066856e-13      22644.072 
 5240000      284  7.7786876e-13      22692.284 
 5250000      284  7.9779883e-13      22743.389 
 5260000      284  8.2091452e-13      22795.701 
 5270000      284  7.9908268e-13      22847.093 
 5280000      284  7.8951891e-13      22898.057 
 5290000      284  7.6507259e-13      22949.235 
 5300000      284  7.8302783e-13      23000.408 
 5310000      284  7.5720273e-13      23053.333 
 5320000      284   7.745746e-13      23106.375 
 5330000      284  8.3285364e-13       23157.06 
 5340000      284  7.7736715e-13      23207.974 
 5350000      284  7.6225442e-13      23261.786 
 5360000      284  7.5364689e-13      23312.828 
 5370000      284  7.6597183e-13       23362.96 
 5380000      284  7.8591112e-13      23414.272 
 5390000      284  7.9486604e-13      23465.065 
 5400000      284  7.9592545e-13      23537.145 
 5410000      284  7.6452632e-13       23587.81 
 5420000      284  7.5169087e-13      23638.404 
 5430000      284  7.7350759e-13      23686.093 
 5440000      284  7.6865234e-13      23737.174 
 5450000      284  7.8083113e-13      23791.013 
 5460000      284  7.7506407e-13      23839.121 
 5470000      284  7.8250343e-13      23889.953 
 5480000      284   7.524458e-13      23943.476 
 5490000      284  7.5401166e-13      23986.055 
 5500000      284  7.4279849e-13      24022.828 
 5510000      284  7.9385689e-13      24059.638 
 5520000      284  7.9569661e-13      24098.835 
 5530000      284  7.8765977e-13      24137.166 
 5540000      284  7.6545153e-13      24174.405 
 5550000      284  7.4583327e-13       24213.29 
 5560000      284  7.6673095e-13      24252.118 
 5570000      284  7.7782718e-13      24292.782 
 5580000      284  7.9720671e-13      24328.643 
 5590000      284  7.7280945e-13      24368.515 
 5600000      284  7.8890067e-13      24409.978 
 5610000      284  7.4321447e-13      24454.197 
 5620000      284  7.6703247e-13      24492.451 
 5630000      284  7.6965058e-13      24533.456 
 5640000      284  8.0876265e-13      24577.642 
 5650000      284  8.2558711e-13      24620.444 
 5660000      284  8.1465852e-13      24673.561 
 5670000      284  7.7342698e-13      24725.112 
 5680000      284  7.8051091e-13      24849.874 
 5690000      284  7.9358065e-13      25019.512 
 5700000      284  8.1617925e-13      25188.596 
 5710000      284  8.2219054e-13      25417.224 
 5720000      284  7.9193131e-13      25598.165 
 5730000      284   8.222139e-13      25725.841 
 5740000      284  7.5349966e-13      25777.961 
 5750000      284  7.9565358e-13      25833.399 
 5760000      284  7.7930504e-13      25886.146 
 5770000      284  8.2996255e-13      25943.468 
 5780000      284  8.4003052e-13      25999.124 
 5790000      284  8.2924768e-13      26052.394 
 5800000      284  8.0516667e-13      26126.468 
 5810000      284  7.6617584e-13      26239.764 
 5820000      284  7.7206876e-13      26295.174 
 5830000      284  7.9772416e-13      26347.781 
 5840000      284  8.4661447e-13       26407.09 
 5850000      284  8.0985891e-13      26505.782 
 5860000      284  8.4949102e-13      26572.805 
 5870000      284  7.6391914e-13      26645.946 
 5880000      284  7.9567522e-13      26685.997 
 5890000      284  7.9096447e-13      26725.647 
 5900000      284  8.2261041e-13      26763.277 
 5910000      284  8.2359074e-13      26804.446 
 5920000      284  8.0584723e-13      26847.495 
 5930000      284  7.9131226e-13      26888.255 
 5940000      284   7.550267e-13      26935.762 
 5950000      284  7.4572074e-13      27193.547 
 5960000      284  8.1121093e-13       27386.97 
 5970000      284  8.5348907e-13      27526.832 
 5980000      284  8.1172725e-13      27785.924 
 5990000      284  8.0513806e-13      27998.696 
 6000000      284   7.602101e-13       28146.02 
 6010000      284  7.8014035e-13      28236.049 
 6020000      284  7.9719489e-13      28277.094 
 6030000      284   8.352958e-13      28308.654 
 6040000      284  8.3545525e-13      28469.667 
 6050000      284  8.1190567e-13      28540.395 
 6060000      284  7.6145936e-13      28578.603 
 6070000      284  7.3749351e-13      28618.886 
 6080000      284  7.4645726e-13      28654.987 
 6090000      284  7.8241335e-13      28697.393 
 6100000      284  8.0980697e-13      28744.447 
 6110000      284  8.0438839e-13      28786.269 
 6120000      284  7.8109407e-13      28832.252 
 6130000      284  7.5447204e-13      28883.762 
 6140000      284  7.8065425e-13      28934.763 
 6150000      284  8.0280378e-13      28986.049 
 6160000      284  8.2350571e-13      29038.411 
 6170000      284  8.0875576e-13      29084.409 
 6180000      284  7.7410624e-13      29137.252 
 6190000      284  7.4398801e-13      29187.112 
 6200000      284  7.3039591e-13      29252.303 
 6210000      284  7.4468659e-13      29304.329 
 6220000      284  7.7134543e-13      29359.277 
 6230000      284  8.2843186e-13      29409.597 
 6240000      284  7.9866907e-13      29462.387 
 6250000      284  7.7034069e-13      29519.775 
 6260000      284  7.6369519e-13      29567.247 
 6270000      284  7.6668359e-13      29618.527 
 6280000      284  7.9984571e-13      29670.284 
 6290000      284  7.9925178e-13      29721.562 
 6300000      284  7.8631801e-13       29772.52 
 6310000      284   7.670704e-13      29823.045 
 6320000      284  7.3870549e-13       29870.13 
 6330000      284  7.4637104e-13      29921.016 
 6340000      284  7.2394276e-13      29969.201 
 6350000      284  7.5522534e-13      30022.204 
 6360000      284  7.9850311e-13      30072.451 
 6370000      284  7.8566187e-13      30123.253 
 6380000      284  7.3897641e-13      30178.051 
 6390000      284  7.2402251e-13      30226.315 
 6400000      284  7.3551401e-13       30284.81 
 6410000      284  7.8568104e-13      30335.897 
 6420000      284  7.9477717e-13      30378.402 
 6430000      284   7.771248e-13      30413.792 
 6440000      284  7.4446133e-13      30451.227 
 6450000      284  7.3560989e-13      30488.596 
 6460000      284  7.4350512e-13      30523.444 
 6470000      284  7.5045451e-13      30566.123 
 6480000      284  7.6433533e-13      30610.198 
 6490000      284  7.7234466e-13      30651.345 
 6500000      284  7.7461052e-13      30693.292 
 6510000      284  7.0720567e-13      30735.592 
 6520000      284  7.1784086e-13      30773.685 
 6530000      284  7.3319981e-13      30811.382 
 6540000      284  7.7739326e-13      30854.005 
 6550000      284  7.8671396e-13      30893.557 
 6560000      284  7.8505332e-13      30933.559 
 6570000      284  7.6752285e-13      30973.719 
 6580000      284  7.4436406e-13      31013.705 
 6590000      284  7.5290182e-13      31049.306 
 6600000      284  7.6509701e-13      31095.928 
 6610000      284  7.7867574e-13      31135.655 
 6620000      284   8.028376e-13      31173.457 
 6630000      284  8.2513986e-13      31214.138 
 6640000      284    7.30777e-13      31255.196 
 6650000      284  7.4775577e-13      31294.436 
 6660000      284  7.5170034e-13      31334.827 
 6670000      284  8.6564556e-13      31374.588 
 6680000      284  8.0867883e-13      31413.933 
 6690000      284  8.1440233e-13      31453.373 
 6700000      284  7.9840197e-13      31492.378 
 6710000      284  7.9212542e-13      31534.117 
 6720000      284  7.9855836e-13      31574.842 
 6730000      284   8.037566e-13      31612.645 
 6740000      284  8.0638099e-13      31644.131 
 6750000      284  7.7762099e-13      31686.555 
 6760000      284  8.2348516e-13      31730.166 
 6770000      284  7.6135752e-13      31770.389 
 6780000      284  7.9536893e-13      31806.724 
 6790000      284  7.8971879e-13      31841.713 
 6800000      284  8.2712732e-13      31885.818 
 6810000      284    8.42326e-13      31928.024 
 6820000      284   8.273994e-13      31962.475 
 6830000      284   8.075203e-13      32001.549 
 6840000      284   7.684008e-13      32039.953 
 6850000      284    7.91849e-13      32078.452 
 6860000      284  7.8678282e-13      32111.719 
 6870000      284  8.3620641e-13       32147.98 
 6880000      284  7.9817009e-13      32185.773 
 6890000      284  7.8467109e-13      32232.465 
 6900000      284  7.5563903e-13      32270.073 
 6910000      284  8.3670461e-13      32311.039 
 6920000      284  7.8906545e-13      32347.876 
 6930000      284  8.2573335e-13       32394.68 
 6940000      284  8.4415766e-13      32446.858 
 6950000      284   8.273789e-13       32498.39 
 6960000      284  8.0280507e-13       32548.82 
 6970000      284  7.6036576e-13      32600.552 
 6980000      284  7.5462309e-13      32648.888 
 6990000      284  8.1385437e-13       32700.11 
 7000000      284  8.6576511e-13      32759.146 
 7010000      284  8.0629575e-13      32811.279 
 7020000      284  7.9284269e-13      32863.582 
 7030000      284  7.6491167e-13      32914.484 
 7040000      284  7.8291586e-13      32961.267 
 7050000      284   7.947482e-13      33013.542 
 7060000      284  8.2550745e-13      33065.031 
 7070000      284  8.1180383e-13      33110.156 
 7080000      284  7.7291796e-13      33154.606 
 7090000      284  7.6423368e-13      33198.619 
 7100000      284  7.4923207e-13      33239.296 
 7110000      284  7.3743255e-13      33284.143 
 7120000      284  7.3907374e-13      33328.992 
 7130000      284  8.2697166e-13      33371.523 
 7140000      284  7.9398494e-13      33416.293 
 7150000      284  7.6318233e-13      33462.651 
 7160000      284  7.4733646e-13      33506.799 
 7170000      284  8.0274327e-13       33550.41 
 7180000      284  9.5366953e-13       33594.47 
 7190000      284  1.0123582e-12       33644.37 
 7200000      284  8.1685625e-13      33693.035 
 7210000      284  7.9134941e-13       33736.82 
 7220000      284  7.4988644e-13      33780.413 
 7230000      284  7.7037038e-13      33824.607 
 7240000      284   7.613728e-13      33869.128 
 7250000      284   7.880731e-13      33919.436 
 7260000      284  8.5595844e-13      33966.459 
 7270000      284  7.9931967e-13      34011.376 
 7280000      284  7.6123665e-13      34059.142 
 7290000      284   7.636966e-13      34103.314 
 7300000      284  7.6554717e-13      34146.905 
 7310000      284  8.1927331e-13      34192.009 
 7320000      284  8.1686888e-13      34237.175 
 7330000      284  7.9691599e-13       34281.38 
 7340000      284  7.7001141e-13      34326.773 
 7350000      284  7.2759291e-13      34368.137 
 7360000      284  7.7940647e-13      34412.524 
 7370000      284   7.736341e-13      34457.557 
 7380000      284  1.1158558e-12      34507.199 
 7390000      284  8.3664042e-13      34553.981 
 7400000      284  8.1901471e-13      34605.357 
 7410000      284  7.5733014e-13      34650.512 
 7420000      284  7.4925338e-13       34691.05 
 7430000      284  7.7513143e-13      34734.061 
 7440000      284  8.1034858e-13      34778.781 
 7450000      284   8.210725e-13      34823.205 
 7460000      284  7.9767451e-13       34867.68 
 7470000      284  7.6882783e-13      34912.649 
 7480000      284  7.3360778e-13      34957.354 
 7490000      284  7.2837158e-13      35001.174 
 7500000      284   7.331638e-13      35043.437 
 7510000      284  7.7895094e-13      35090.722 
 7520000      284  8.0036014e-13      35136.963 
 7530000      284  8.1255921e-13      35184.008 
 7540000      284  7.2264841e-13      35227.505 
 7550000      284  7.4192586e-13      35271.814 
 7560000      284  7.6286368e-13      35314.756 
 7570000      284  8.1759984e-13      35357.976 
 7580000      284  8.1856739e-13      35401.679 
 7590000      284  7.9973605e-13      35446.594 
 7600000      284   7.516942e-13      35491.532 
 7610000      284  7.2330129e-13      35534.523 
 7620000      284  7.2997863e-13      35578.188 
 7630000      284  7.5222769e-13       35622.42 
 7640000      284  8.0047573e-13      35670.806 
 7650000      284  7.8151376e-13      35715.568 
 7660000      284  8.1563984e-13      35763.298 
 7670000      284  7.4487037e-13      35806.425 
 7680000      284  7.5897243e-13      35851.064 
 7690000      284  7.8099109e-13      35895.458 
 7700000      284  8.2553748e-13      35938.377 
 7710000      284  8.1883309e-13      35981.548 
 7720000      284  8.0588383e-13      36023.043 
 7730000      284  7.5560254e-13       36067.01 
 7740000      284  7.4549521e-13      36111.704 
 7750000      284  7.4422576e-13      36156.751 
 7760000      284  7.7407887e-13      36201.698 
 7770000      284  8.1395027e-13      36248.902 
 7780000      284  7.8293767e-13       36292.37 
 7790000      284  7.7595314e-13      36339.043 
 7800000      284  7.3545969e-13      36387.512 
 7810000      284   7.679468e-13      36431.018 
 7820000      284  7.8718687e-13      36475.045 
 7830000      284  8.1988578e-13      36519.321 
 7840000      284    8.28859e-13      36562.774 
 7850000      284  7.9428092e-13      36606.191 
 7860000      284  7.6429301e-13      36643.639 
 7870000      284  7.4389557e-13      36684.934 
 7880000      284  7.3641752e-13      36726.646 
 7890000      284  7.8684939e-13      36770.782 
 7900000      284  8.3444378e-13      36811.697 
 7910000      284  7.8104943e-13      36853.095 
 7920000      284  7.5563522e-13       36896.92 
 7930000      284  7.4155635e-13      36937.972 
 7940000      284  7.8060475e-13      36979.187 
 7950000      284  7.9760143e-13      37020.609 
 7960000      284  8.1889751e-13      37060.837 
 7970000      284  8.1553479e-13      37103.153 
 7980000      284  7.7905119e-13      37142.678 
 7990000      284  7.4380593e-13      37183.683 
 8000000      284  7.3486688e-13      37227.599 
 8010000      284  7.3054119e-13      37265.091 
 8020000      284  7.5503943e-13      37309.408 
 8030000      284  8.0893726e-13      37350.478 
 8040000      284  7.9751718e-13      37393.803 
 8050000      284   7.585602e-13      37440.901 
 8060000      284  7.4294301e-13      37479.542 
 8070000      284  7.6880451e-13      37520.894 
 8080000      284  8.0806885e-13      37563.266 
 8090000      284  8.2979015e-13      37604.912 
 8100000      284  8.2717869e-13      37645.698 
 8110000      284  7.7410114e-13      37687.081 
 8120000      284  7.3155606e-13      37727.835 
 8130000      284  7.2306691e-13       37768.66 
 8140000      284  7.3563821e-13      37805.543 
 8150000      284  7.7387163e-13      37849.631 
 8160000      284  7.9915429e-13      37891.043 
 8170000      284  7.8384162e-13      37935.165 
 8180000      284   7.299543e-13       37979.74 
 8190000      284     7.4585e-13      38020.439 
 8200000      284  7.6027442e-13       38063.07 
 8210000      284  8.0350066e-13      38105.702 
 8220000      284  8.4266705e-13      38146.362 
 8230000      284  8.3107395e-13      38187.421 
 8240000      284  7.8804869e-13      38228.067 
 8250000      284   7.420255e-13      38270.662 
 8260000      284  7.3228226e-13      38313.087 
 8270000      284  7.3830449e-13      38355.608 
 8280000      284    7.71932e-13      38398.836 
 8290000      284  7.9904819e-13      38444.515 
 8300000      284  7.9580223e-13      38486.385 
 8310000      284  7.2597999e-13      38530.605 
 8320000      284  7.4674002e-13      38573.814 
 8330000      284  7.5671166e-13      38616.375 
 8340000      284  8.9819371e-13      38658.585 
 8350000      284  8.3338905e-13      38701.479 
 8360000      284  8.2195134e-13      38741.756 
 8370000      284  7.4965139e-13       38784.31 
 8380000      284  7.5356726e-13      38825.794 
 8390000      284  7.1408419e-13       38870.29 
 8400000      284  7.0336445e-13      38918.029 
 8410000      284  7.3783318e-13      38962.717 
 8420000      284  7.5487234e-13      39006.995 
 8430000      284  7.9951299e-13      39054.499 
 8440000      284  7.5959591e-13      39101.593 
 8450000      284  7.1935736e-13      39146.236 
 8460000      284  8.0099574e-13      39188.388 
 8470000      284   8.499915e-13      39232.449 
 8480000      284   8.460944e-13      39276.882 
 8490000      284  8.2459901e-13      39321.171 
 8500000      284  7.6705199e-13      39365.888 
 8510000      284  7.4083079e-13      39409.779 
 8520000      284  7.6222321e-13       39454.17 
 8530000      284  7.8772741e-13      39500.083 
 8540000      284  8.2198856e-13      39560.688 
 8550000      284  7.7876961e-13      39618.328 
 8560000      284  7.8720075e-13      39670.506 
 8570000      284  7.4256204e-13       39729.67 
 8580000      284   7.719909e-13      39780.686 
 8590000      284  7.8738597e-13      39836.372 
 8600000      284  8.2678966e-13      39898.462 
 8610000      284  8.3930722e-13      39950.064 
 8620000      284  8.1438162e-13      40004.499 
 8630000      284   7.636316e-13      40059.028 
 8640000      284  7.1824524e-13      40111.882 
 8650000      284  7.2606517e-13      40166.722 
 8660000      284   7.632189e-13      40218.748 
 8670000      284  8.0875966e-13      40271.128 
 8680000      284  7.7576004e-13      40328.963 
 8690000      284  8.0781366e-13      40385.878 
 8700000      284  7.2611264e-13      40439.237 
 8710000      284  7.7430873e-13      40489.303 
 8720000      284  7.8903317e-13       40540.92 
 8730000      284  8.3362563e-13      40592.907 
 8740000      284  8.2926655e-13      40647.016 
 8750000      284  8.1727026e-13      40699.172 
 8760000      284  7.8846278e-13      40754.821 
 8770000      284  7.3333815e-13      40809.421 
 8780000      284  7.4369864e-13      40862.219 
 8790000      284  7.9117734e-13      40910.854 
 8800000      284  8.4507122e-13      40977.739 
 8810000      284  7.9422481e-13      41031.849 
 8820000      284  7.7430404e-13      41087.909 
 8830000      284  7.3729504e-13      41138.096 
 8840000      284  7.9058628e-13      41193.471 
 8850000      284  8.0768807e-13      41249.293 
 8860000      284  8.4934089e-13      41301.443 
 8870000      284  8.3570318e-13      41347.815 
 8880000      284  8.0809204e-13      41398.721 
 8890000      284  7.5792815e-13      41454.198 
 8900000      284  7.4294268e-13      41503.698 
 8910000      284  7.4186497e-13      41558.348 
 8920000      284  7.9816202e-13      41612.839 
 8930000      284  8.1516775e-13      41669.218 
 8940000      284  7.9231131e-13      41723.525 
 8950000      284  7.5111616e-13       41779.06 
 8960000      284  7.3213709e-13          41828 
 8970000      284  7.7558048e-13      41884.563 
 8980000      284  8.0789743e-13      41940.081 
 8990000      284  8.1329415e-13       41989.41 
 9000000      284   8.163599e-13      42049.953 
 9010000      284  7.6707196e-13      42105.879 
 9020000      284  7.2855218e-13      42161.606 
 9030000      284   7.276294e-13      42210.585 
 9040000      284  7.2326123e-13      42262.241 
 9050000      284  7.4902499e-13       42319.42 
 9060000      284  8.0102061e-13      42374.796 
 9070000      284  7.9310468e-13      42431.179 
 9080000      284   7.356518e-13      42487.296 
 9090000      284  7.1208536e-13      42537.141 
 9100000      284  7.6129342e-13      42593.277 
 9110000      284  8.1597515e-13      42648.136 
 9120000      284  8.1803076e-13      42694.071 
 9130000      284  8.0738049e-13      42735.839 
 9140000      284  7.6371107e-13       42780.51 
 9150000      284  7.2279472e-13      42825.359 
 9160000      284   7.256338e-13      42870.044 
 9170000      284  7.2555768e-13      42916.035 
 9180000      284  7.6363009e-13      42963.177 
 9190000      284  7.9141681e-13      43008.404 
 9200000      284  7.7773769e-13      43056.533 
 9210000      284  7.1951942e-13      43103.841 
 9220000      284  7.2253906e-13      43150.231 
 9230000      284  7.4199192e-13      43196.216 
 9240000      284  8.0681869e-13      43241.775 
 9250000      284  8.2743029e-13      43285.244 
 9260000      284  8.1043237e-13      43331.456 
 9270000      284  7.7804603e-13      43377.675 
 9280000      284  7.3452592e-13      43423.317 
 9290000      284  7.2847674e-13      43468.903 
 9300000      284  7.3261733e-13      43514.925 
 9310000      284  7.8008036e-13      43563.864 
 9320000      284  8.1201842e-13        43610.3 
 9330000      284  7.9247764e-13      43658.005 
 9340000      284  7.1666746e-13      43704.557 
 9350000      284  7.2364821e-13      43751.959 
 9360000      284  7.4736808e-13      43797.736 
 9370000      284  8.1296372e-13      43843.167 
 9380000      284  8.2140577e-13      43887.626 
 9390000      284  7.9824717e-13      43933.769 
 9400000      284   7.622771e-13      43983.853 
 9410000      284  7.2173125e-13      44027.606 
 9420000      284  7.3559264e-13      44073.269 
 9430000      284  7.4302655e-13      44119.114 
 9440000      284  7.9837993e-13      44167.879 
 9450000      284   7.962301e-13      44213.707 
 9460000      284  8.0106629e-13      44261.535 
 9470000      284  7.1066284e-13      44310.098 
 9480000      284  7.3063847e-13      44356.986 
 9490000      284  7.4643773e-13       44402.13 
 9500000      284     8.1076e-13      44443.015 
 9510000      284  8.2028126e-13      44487.849 
 9520000      284  7.9511423e-13      44533.921 
 9530000      284  7.7613379e-13      44580.153 
 9540000      284  7.2141808e-13       44624.37 
 9550000      284  7.3384408e-13      44670.811 
 9560000      284  7.5929515e-13      44716.538 
 9570000      284   8.144323e-13      44765.136 
 9580000      284  7.7332885e-13      44810.747 
 9590000      284  7.9298722e-13      44855.165 
 9600000      284  7.1008824e-13      44904.694 
 9610000      284  7.3984987e-13      44950.649 
 9620000      284  7.6330867e-13      44996.505 
 9630000      284  8.1885613e-13      45041.981 
 9640000      284  8.3350132e-13      45087.739 
 9650000      284  8.0726514e-13       45132.83 
 9660000      284  7.6418348e-13      45178.039 
 9670000      284  7.3227296e-13      45223.062 
 9680000      284  7.3099393e-13      45266.354 
 9690000      284  7.8081431e-13      45313.874 
 9700000      284  8.3356911e-13      45359.248 
 9710000      284  7.7932891e-13       45407.87 
 9720000      284  7.6475921e-13      45456.175 
 9730000      284   7.232349e-13      45502.103 
 9740000      284  7.4953527e-13      45547.581 
 9750000      284  7.6744247e-13      45593.969 
 9760000      284   8.169358e-13      45639.426 
 9770000      284  8.1081529e-13      45682.055 
 9780000      284  7.9091764e-13      45727.965 
 9790000      284  7.5110454e-13      45773.607 
 9800000      284  7.5552864e-13      45824.619 
 9810000      284  7.4366823e-13      45869.779 
 9820000      284  7.7550292e-13      45919.156 
 9830000      284    8.65966e-13      45965.856 
 9840000      284  7.7988534e-13      46009.166 
 9850000      284   7.545705e-13      46054.482 
 9860000      284  7.2544628e-13      46097.188 
 9870000      284  7.6324285e-13      46139.605 
 9880000      284  7.8815504e-13      46182.213 
 9890000      284  8.3127454e-13      46224.464 
 9900000      284  8.1755401e-13      46266.207 
 9910000      284  8.0482586e-13       46305.86 
 9920000      284  7.6055259e-13      46347.683 
 9930000      284  7.5758054e-13      46390.306 
 9940000      284   7.548709e-13       46432.81 
 9950000      284  7.8987116e-13      46477.967 
 9960000      284  8.1583592e-13      46522.866 
 9970000      284  7.8340767e-13       46564.43 
 9980000      284  7.3958644e-13      46609.867 
 9990000      284  7.2370919e-13      46652.725 
10000000      284  7.4178398e-13      46698.476 
10010000      284  7.9778375e-13       46742.03 
10020000      284  8.1012485e-13      46783.791 
10030000      284  8.1085594e-13      46823.919 
10040000      284  7.8648397e-13      46865.723 
10050000      284  7.4446988e-13       46907.78 
10060000      284  7.3083743e-13      46950.552 
10070000      284  7.3498818e-13      46992.586 
10080000      284  7.9167757e-13      47035.965 
10090000      284  8.1958511e-13      47077.381 
10100000      284  8.0585123e-13      47121.732 
10110000      284  7.3022617e-13      47166.209 
10120000      284  7.2284694e-13      47207.818 
10130000      284  7.4390671e-13      47250.702 
10140000      284  8.0518523e-13       47293.34 
10150000      284  8.0486668e-13      47334.494 
10160000      284  8.0566983e-13      47377.615 
10170000      284  7.8480116e-13      47419.366 
10180000      284  7.3719188e-13      47460.154 
10190000      284  7.3305232e-13      47502.134 
10200000      284  7.4301573e-13      47549.972 
10210000      284   7.900448e-13      47595.343 
10220000      284  8.0686331e-13      47637.942 
10230000      284  7.8872319e-13      47683.389 
10240000      284  7.1388225e-13       47729.33 
10250000      284  7.0710979e-13      47771.191 
10260000      284  7.3446711e-13      47810.404 
10270000      284  8.0439196e-13      47852.913 
10280000      284  8.2463396e-13      47895.069 
10290000      284  7.9911733e-13      47937.735 
10300000      284  7.8077869e-13      47979.652 
10310000      284  7.4842358e-13      48025.003 
10320000      284  7.3996106e-13      48069.556 
10330000      284  7.3953785e-13      48114.562 
10340000      284  7.7835341e-13      48159.469 
10350000      284  7.8462727e-13       48204.37 
10360000      284  7.9775864e-13      48251.835 
10370000      284  7.0879642e-13      48299.873 
10380000      284  7.0859724e-13       48343.01 
10390000      284  7.3331403e-13      48388.588 
10400000      284  8.0292824e-13      48438.238 
10410000      284  8.2106388e-13      48482.664 
10420000      284  8.1120038e-13      48527.758 
10430000      284  7.6800221e-13      48572.812 
10440000      284  7.3926872e-13       48618.03 
10450000      284  7.3611464e-13      48669.973 
10460000      284  7.4762425e-13      48725.759 
10470000      284  8.0114123e-13      48780.758 
10480000      284  7.7989079e-13      48827.035 
10490000      284  8.6467952e-13      48879.711 
10500000      284  7.0171174e-13      48924.775 
10510000      284  7.1846142e-13      48970.773 
10520000      284  7.3373814e-13      49013.648 
10530000      284  8.0353795e-13      49058.809 
10540000      284  8.2575543e-13      49105.365 
10550000      284  7.9361846e-13      49151.074 
10560000      284   7.520833e-13      49197.249 
10570000      284  7.4322411e-13      49241.496 
10580000      284   7.387653e-13      49287.498 
10590000      284  7.5820494e-13      49333.016 
10600000      284  8.1882543e-13      49383.089 
10610000      284  7.8312058e-13      49428.697 
10620000      284  7.6203899e-13      49477.243 
10630000      284  7.1993309e-13      49523.507 
10640000      284  7.5200028e-13      49568.943 
10650000      284  7.5692417e-13      49614.196 
10660000      284   8.228615e-13      49658.892 
10670000      284  8.4096553e-13      49704.353 
10680000      284  8.1676537e-13      49750.055 
10690000      284  7.7785692e-13          49796 
10700000      284  7.5532956e-13      49841.862 
10710000      284  7.5269931e-13      49886.225 
10720000      284  7.9142996e-13      49934.146 
10730000      284  8.4523433e-13       49981.37 
10740000      284  7.8991411e-13       50026.52 
10750000      284  7.5002565e-13      50077.436 
10760000      284  7.2097423e-13      50124.572 
10770000      284  7.4956411e-13      50169.726 
10780000      284   7.572581e-13      50212.991 
10790000      284   8.101318e-13      50258.959 
10800000      284  8.3149916e-13      50309.087 
10810000      284  8.1813103e-13      50354.839 
10820000      284  7.6602401e-13      50401.489 
10830000      284  7.5365376e-13      50446.506 
10840000      284  7.4075823e-13      50492.065 
10850000      284  8.1153309e-13      50538.812 
10860000      284  8.2886105e-13      50586.652 
10870000      284  7.8762349e-13       50632.86 
10880000      284  7.5112848e-13       50682.39 
10890000      284  7.2341746e-13      50729.116 
10900000      284  7.5422017e-13      50774.787 
10910000      284  7.9073177e-13       50818.57 
10920000      284  8.3356936e-13       50864.01 
10930000      284   8.447984e-13      50908.421 
10940000      284  8.0997973e-13      50953.903 
10950000      284  7.7259876e-13      51001.816 
10960000      284  7.5668167e-13      51048.494 
10970000      284  7.4752174e-13      51100.167 
10980000      284  7.9879522e-13       51148.04 
10990000      284  8.2282381e-13      51197.365 
11000000      284  7.9572796e-13      51247.982 
11010000      284  7.4307026e-13      51297.709 
11020000      284   7.274385e-13      51343.621 
11030000      284  7.4932876e-13      51389.267 
11040000      284  8.0551057e-13      51436.539 
11050000      284  8.3223128e-13      51483.792 
11060000      284  8.2179984e-13      51530.245 
11070000      284  7.9838623e-13      51574.943 
11080000      284  7.6326597e-13      51617.568 
11090000      284  7.4933343e-13      51664.272 
11100000      284  7.4449545e-13      51711.983 
11110000      284  7.9381219e-13      51760.328 
11120000      284  8.3113014e-13       51807.31 
11130000      284  8.1695666e-13      51857.389 
11140000      284  7.2945726e-13       51905.39 
11150000      284  7.4669391e-13      51952.124 
11160000      284  7.3056619e-13      51998.991 
11170000      284  7.9079061e-13      52045.614 
11180000      284  8.1761908e-13      52091.464 
11190000      284  8.0797417e-13      52136.433 
11200000      284  7.6321066e-13      52185.916 
11210000      284  7.4946174e-13      52227.042 
11220000      284  7.6778877e-13      52270.302 
11230000      284  7.5828014e-13       52312.49 
11240000      284  7.5791601e-13       52356.42 
11250000      284  7.5889608e-13      52398.244 
11260000      284  7.7087697e-13      52441.016 
11270000      284   7.067424e-13      52487.338 
11280000      284  7.0534809e-13      52529.174 
11290000      284  7.2814651e-13      52571.586 
11300000      284  7.9153503e-13      52611.391 
11310000      284  8.2302649e-13      52654.138 
11320000      284  8.0838785e-13      52697.607 
11330000      284  7.7676786e-13      52739.101 
11340000      284  7.4026939e-13      52781.354 
11350000      284  7.5226909e-13      52823.933 
11360000      284  7.6374018e-13       52865.65 
11370000      284  8.3994278e-13      52914.568 
11380000      284  8.1296716e-13      52959.778 
11390000      284  8.1950218e-13      53005.882 
11400000      284  7.1878328e-13      53055.964 
11410000      284  7.4831602e-13      53097.267 
11420000      284  7.3989008e-13      53139.953 
11430000      284  8.0420326e-13      53180.164 
11440000      284  8.1955249e-13      53222.937 
11450000      284  8.1759648e-13      53267.207 
11460000      284  7.7964999e-13      53309.354 
11470000      284  7.4019786e-13      53352.603 
11480000      284  7.4498394e-13      53395.007 
11490000      284  7.6740025e-13      53437.124 
11500000      284  8.2075002e-13      53480.565 
11510000      284  8.0294688e-13      53526.599 
11520000      284   7.754876e-13        53571.2 
11530000      284  7.0679363e-13      53613.552 
11540000      284  7.4060566e-13      53657.129 
11550000      284  7.5292362e-13      53698.482 
11560000      284  8.1264465e-13      53739.988 
11570000      284   8.146542e-13      53783.585 
11580000      284  8.1527012e-13      53823.792 
11590000      284  7.7977965e-13      53866.979 
11600000      284  7.4324699e-13      53915.652 
11610000      284   7.491897e-13      53958.613 
11620000      284  7.7888209e-13      54001.236 
11630000      284  8.5231345e-13      54046.699 
11640000      284  7.8672968e-13      54092.252 
11650000      284   7.453765e-13      54134.507 
11660000      284    7.21715e-13      54177.714 
11670000      284  7.6337928e-13      54222.395 
11680000      284  7.8058806e-13      54267.751 
11690000      284  8.2893787e-13      54312.668 
11700000      284  8.6144762e-13      54357.429 
11710000      284  8.3868617e-13      54402.599 
11720000      284  7.9619792e-13      54447.456 
11730000      284  7.6230667e-13      54490.328 
11740000      284   7.631961e-13       54535.73 
11750000      284  8.1265381e-13      54581.055 
11760000      284  8.2563409e-13      54628.256 
11770000      284  8.1548922e-13      54676.215 
11780000      284  7.8023257e-13      54724.883 
11790000      284   7.425746e-13      54769.993 
11800000      284  7.7168514e-13      54819.679 
11810000      284  7.9900199e-13      54865.363 
11820000      284  8.2511884e-13      54916.338 
11830000      284  8.4338164e-13      54970.018 
11840000      284  8.0671114e-13      55020.006 
11850000      284  7.7736333e-13      55065.649 
11860000      284   7.661061e-13      55111.514 
11870000      284  7.6038965e-13      55157.992 
11880000      284  8.2995999e-13      55205.381 
11890000      284  8.2321361e-13      55254.425 
11900000      284  8.1400039e-13      55301.492 
11910000      284  7.6531427e-13      55350.723 
11920000      284  7.4886567e-13      55397.461 
11930000      284  7.7233194e-13      55443.866 
11940000      284    8.26246e-13       55489.68 
11950000      284  8.5523102e-13      55532.338 
11960000      284  8.6339589e-13      55577.963 
11970000      284  8.2383334e-13      55623.777 
11980000      284  7.9366346e-13      55668.783 
11990000      284  7.6937046e-13      55715.717 
12000000      284  7.8313766e-13      55766.397 
12010000      284  8.5897361e-13      55812.996 
12020000      284  8.2973249e-13      55862.978 
12030000      284  8.1121269e-13      55909.482 
12040000      284  7.5556916e-13      55958.798 
12050000      284  7.4230043e-13      56005.357 
12060000      284  7.6358916e-13      56049.968 
12070000      284  8.3202788e-13      56094.551 
12080000      284  8.4402332e-13      56140.332 
12090000      284  8.1941082e-13      56186.201 
12100000      284  8.0683683e-13      56231.889 
12110000      284  7.6458262e-13      56274.724 
12120000      284  7.5255214e-13      56321.033 
12130000      284  7.6501549e-13      56365.582 
12140000      284  8.0729994e-13      56414.121 
12150000      284  8.1654707e-13      56459.918 
12160000      284  8.1134219e-13      56512.454 
12170000      284  7.3250517e-13       56559.33 
12180000      284  7.2055613e-13      56604.949 
12190000      284  7.3938206e-13      56649.262 
12200000      284  8.0507603e-13      56699.412 
12210000      284  8.1979988e-13      56745.276 
12220000      284  8.1132133e-13      56788.686 
12230000      284  7.6765838e-13      56835.241 
12240000      284  7.3475896e-13      56881.586 
12250000      284  7.2587241e-13      56927.977 
12260000      284    7.51228e-13      56972.791 
12270000      284  7.9630289e-13      57022.126 
12280000      284  7.8824653e-13      57067.895 
12290000      284  7.8666559e-13      57117.344 
12300000      284  7.1264175e-13      57163.449 
12310000      284  7.2113651e-13      57210.143 
12320000      284  7.4345505e-13      57255.816 
12330000      284  8.0812237e-13      57300.673 
12340000      284  8.2091598e-13      57346.681 
12350000      284  7.9999964e-13      57391.502 
12360000      284  7.6898228e-13      57436.253 
12370000      284  7.4090341e-13      57479.326 
12380000      284  7.4848189e-13      57525.562 
12390000      284  7.6203913e-13       57570.75 
12400000      284  8.2438054e-13      57623.957 
12410000      284   8.352576e-13      57670.631 
12420000      284   7.681223e-13      57722.182 
12430000      284  7.2373133e-13      57768.443 
12440000      284  7.5451522e-13      57815.272 
12450000      284  7.8173926e-13      57861.369 
12460000      284  8.1631623e-13      57906.961 
12470000      284  8.2412796e-13      57950.019 
12480000      284  8.0098918e-13      57996.466 
12490000      284  7.7545908e-13      58043.254 
12500000      284  7.4920011e-13      58089.647 
12510000      284  7.4367631e-13      58136.922 
12520000      284  7.7081115e-13      58183.108 
12530000      284   8.354874e-13      58232.028 
12540000      284  7.9299402e-13      58278.048 
12550000      284   7.630771e-13      58326.676 
12560000      284  7.2417197e-13      58373.128 
12570000      284   7.650953e-13      58419.895 
12580000      284    7.73079e-13      58466.539 
12590000      284  8.2258415e-13      58509.659 
12600000      284  8.1187609e-13      58555.851 
12610000      284  8.0650651e-13      58598.869 
12620000      284  7.7983718e-13      58642.245 
12630000      284  7.5096467e-13        58684.9 
12640000      284  7.4198376e-13      58724.875 
12650000      284  7.8178305e-13      58768.753 
12660000      284  8.1177564e-13      58814.594 
12670000      284  7.7887784e-13      58857.914 
12680000      284  7.4555829e-13      58904.189 
12690000      284  7.2477062e-13      58946.905 
12700000      284   7.599721e-13       58989.73 
12710000      284  7.9408125e-13      59034.191 
12720000      284  8.1828446e-13      59077.137 
12730000      284  8.1639993e-13      59119.923 
12740000      284  8.1061251e-13      59158.486 
12750000      284  7.6664838e-13      59201.501 
12760000      284  7.3788442e-13       59244.47 
12770000      284  7.4886941e-13       59289.36 
12780000      284  7.7079877e-13      59331.559 
12790000      284  8.2546643e-13      59377.682 
12800000      284  7.9242856e-13      59424.654 
12810000      284   7.589079e-13       59470.55 
12820000      284  7.4631162e-13      59512.254 
12830000      284  7.6461126e-13      59553.874 
12840000      284  7.9827894e-13      59595.775 
12850000      284  8.1225126e-13      59639.388 
12860000      284  8.1242566e-13      59682.899 
12870000      284  7.9543936e-13      59724.937 
12880000      284  7.7201484e-13      59764.768 
12890000      284  7.6825166e-13      59807.202 
12900000      284  7.8120245e-13      59849.286 
12910000      284   8.249271e-13      59898.084 
12920000      284  8.2744003e-13      59942.336 
12930000      284   7.815908e-13      59986.489 
12940000      284   7.450349e-13      60031.175 
12950000      284  7.6172355e-13      60072.277 
12960000      284  7.7756425e-13      60115.227 
12970000      284  8.3971947e-13      60157.471 
12980000      284  8.5021641e-13      60199.436 
12990000      284  8.5277591e-13      60243.537 
13000000      284  8.3276764e-13      60290.393 
13010000      284  7.6854381e-13      60333.213 
13020000      284  7.5331737e-13       60375.42 
13030000      284  7.8389589e-13       60416.94 
13040000      284  8.3282854e-13      60463.297 
13050000      284  8.5134043e-13      60511.436 
13060000      284  7.9945298e-13      60560.383 
13070000      284  7.2868325e-13      60608.718 
13080000      284  7.3091779e-13      60654.402 
13090000      284  7.4674267e-13      60699.741 
13100000      284  8.0262003e-13      60745.159 
13110000      284  8.0538999e-13      60789.728 
13120000      284  8.0564983e-13        60832.4 
13130000      284  7.8675011e-13      60877.038 
13140000      284  7.4227222e-13      60922.693 
13150000      284  7.3093731e-13      60967.673 
13160000      284  7.4088246e-13      61013.098 
13170000      284  8.0844137e-13      61060.873 
13180000      284   8.169834e-13       61108.89 
13190000      284  7.7655916e-13      61156.699 
13200000      284  7.1740755e-13      61219.281 
13210000      284  7.1638003e-13      61274.644 
13220000      284  7.4849477e-13      61323.448 
13230000      284   7.997328e-13      61368.531 
13240000      284  7.9640883e-13      61413.123 
13250000      284  7.9553398e-13      61457.301 
13260000      284   7.733464e-13       61502.54 
13270000      284  7.2962565e-13      61545.818 
13280000      284  7.2032021e-13      61591.481 
13290000      284  7.3998619e-13      61637.079 
13300000      284  8.0917125e-13      61685.881 
13310000      284  8.1033748e-13       61734.73 
13320000      284  7.7297382e-13      61783.641 
13330000      284  7.1124488e-13      61829.659 
13340000      284  7.2397439e-13      61874.277 
13350000      284  7.4535785e-13      61920.604 
13360000      284  8.0036649e-13      61965.018 
13370000      284  8.0272079e-13      62008.303 
13380000      284   7.981684e-13      62054.813 
13390000      284  7.6815896e-13       62100.02 
13400000      284  7.2280681e-13      62150.821 
13410000      284  7.2952235e-13      62195.263 
13420000      284  7.4912361e-13      62239.984 
13430000      284  8.2727933e-13      62289.017 
13440000      284  8.1721107e-13      62335.532 
13450000      284  7.8360909e-13      62386.539 
13460000      284  7.4016373e-13      62432.771 
13470000      284  7.4194812e-13      62478.528 
13480000      284  7.7484146e-13      62524.399 
13490000      284  8.1723102e-13      62569.371 
13500000      284  8.1978511e-13      62612.041 
13510000      284  8.1275098e-13      62657.015 
13520000      284  7.8548128e-13      62702.325 
13530000      284  7.6658012e-13      62747.586 
13540000      284  7.5251933e-13      62792.957 
13550000      284  7.7678143e-13      62837.049 
13560000      284  8.2408134e-13      62886.058 
13570000      284  8.2148907e-13      62934.732 
13580000      284  7.5979963e-13      62983.044 
13590000      284  7.3386003e-13      63028.533 
13600000      284  7.5096458e-13      63077.977 
13610000      284  7.7353737e-13      63121.221 
13620000      284  8.1649261e-13       63166.59 
13630000      284  8.2142938e-13       63212.19 
13640000      284  8.1326087e-13      63257.911 
[...]
31110000      212  7.5121079e-13      173977.39 
31120000      212  7.4441689e-13      174017.96 
31130000      212  7.2614696e-13      174057.91 
31140000      212  7.8009685e-13      174103.98 
31150000      212  8.2231508e-13      174152.46 
31160000      212  9.6532803e-13      174209.38 
31170000      212   1.153011e-12      174265.51 
31180000      212  1.3029468e-12      174325.72 
31190000      212  1.2897085e-12      174372.88 
31200000      212  1.1550486e-12      174425.54 
31210000      212  9.2181848e-13      174476.01 
31220000      212   7.417963e-13      174516.42 
31230000      212  7.2561046e-13      174550.31 
31240000      212  7.7849147e-13      174589.33 
31250000      212  7.5746925e-13      174624.98 
31260000      212   7.792941e-13      174664.99 
31270000      212  7.5153555e-13      174707.27 
31280000      212   6.455136e-13      174751.02 
31290000      212  7.0859796e-13      174790.77 
31300000      212  9.2172876e-13      174832.92 
31310000      212  1.1940613e-12      174880.71 
31320000      212  1.2628437e-12      174921.54 
31330000      212  1.1614278e-12      174976.72 
31340000      212  1.1454976e-12      175030.35 
31350000      212  1.0042979e-12      175080.82 
31360000      212  1.0781298e-12       175127.1 
31370000      212  9.3828917e-13      175180.71 
31380000      212  7.7784116e-13      175229.32 
31390000      212  7.6567844e-13      175267.82 
31400000      212  7.6631636e-13      175306.32 
31410000      212  6.8662127e-13      175340.41 
31420000      212  7.4762817e-13      175373.23 
31430000      212  7.6380168e-13      175412.45 
31440000      212  9.7005021e-13      175455.11 
31450000      212  1.0072671e-12      175490.66 
31460000      212  8.1203803e-13       175531.6 
31470000      212  8.6536006e-13      175575.08 
31480000      212  8.1079794e-13      175628.54 
31490000      212  1.1034154e-12      175672.37 
31500000      212  1.2970251e-12      175721.16 
31510000      212  1.1692952e-12      175774.54 
31520000      212  1.1037428e-12      175827.65 
31530000      212  9.0347511e-13      175875.07 
31540000      212  6.6451151e-13      175920.91 
31550000      212  8.1318319e-13      175955.73 
31560000      212  8.9781469e-13      176001.29 
31570000      212  1.0820263e-12      176052.76 
31580000      212  1.1429167e-12      176102.09 
31590000      212  1.1575816e-12      176153.94 
31600000      212  7.0680395e-13      176210.44 
31610000      212  5.7649509e-13      176247.11 
31620000      212  7.2848316e-13      176284.28 
31630000      212  9.2026806e-13      176331.83 
31640000      212  1.0998388e-12      176373.25 
31650000      212  1.2285116e-12      176430.67 
31660000      212  1.1401482e-12      176483.92 
31670000      212  8.7481683e-13      176533.71 
31680000      211  7.9777503e-13      177143.17 
31690000      211  8.5346913e-13       177189.6 
31700000      211  9.7259082e-13      177235.01 
31710000      211  1.1276394e-12      177281.65 
31720000      211  7.9889863e-13      177324.14 
31730000      211  6.8211244e-13       177364.6 
31740000      211  6.1705543e-13      177405.58 
31750000      211  7.2855767e-13      177445.11 
31760000      211  7.1037253e-13      177491.04 
31770000      211  7.5679898e-13      177533.55 
31780000      211  8.1454912e-13      177569.27 
31790000      211  8.0233787e-13      177612.26 
31800000      211  9.0767184e-13       177664.2 
31810000      211  9.7812314e-13       177719.5 
31820000      211  1.1950715e-12      177764.43 
31830000      211  1.0345059e-12       177814.3 
31840000      211  1.1732189e-12      177859.34 
31850000      211  9.2187291e-13      177896.35 
31860000      211  6.5702639e-13      177936.69 
31870000      211  6.4593252e-13      177977.75 
31880000      211  7.7442201e-13      178016.43 
31890000      211  7.6922741e-13      178053.81 
31900000      211  8.8630269e-13       178099.4 
31910000      211  9.1549972e-13      178144.93 
31920000      211  8.2287194e-13      178190.65 
31930000      211  7.9186368e-13      178241.11 
31940000      211   7.246879e-13      178291.72 
31950000      211  1.0035497e-12       178337.3 
31960000      211  1.0834326e-12      178387.58 
31970000      211  1.2199436e-12      178437.92 
31980000      211  8.4170768e-13      178485.92 
31990000      211  6.9113997e-13      178535.75 
32000000      211  6.2591709e-13      178570.07 
32010000      211   7.489591e-13      178609.64 
32020000      211   7.600029e-13       178653.3 
32030000      211  8.1189866e-13      178696.16 
32040000      211  8.3503757e-13      178741.61 
32050000      211  6.9272229e-13      178784.03 
32060000      211  7.0991401e-13      178827.67 
32070000      211  7.4667047e-13      178869.33 
32080000      211  1.0562101e-12      178909.44 
32090000      211  1.0837714e-12      178959.27 
32100000      211  1.0152729e-12      179013.69 
32110000      211  9.5379664e-13      179062.72 
32120000      211  6.1394655e-13      179105.86 
32130000      211  6.2194366e-13         179147 
32140000      211  7.2308798e-13       179187.7 
32150000      211  7.9101469e-13       179226.8 
32160000      211  9.0210425e-13       179279.9 
32170000      211  9.0828482e-13      179327.85 
32180000      211   8.800153e-13      179375.39 
32190000      211  8.0452615e-13      179419.42 
32200000      211  8.2324702e-13      179470.85 
32210000      211    9.60008e-13      179518.18 
32220000      211  9.4106137e-13      179563.53 
32230000      211  1.1035137e-12      179604.33 
32240000      211  1.0482652e-12       179653.3 
32250000      211  9.2435755e-13      179699.85 
32260000      211  8.6216803e-13      179749.63 
32270000      211   8.505186e-13      179795.32 
32280000      211  9.1953081e-13      179836.23 
32290000      211  7.8228439e-13      179875.11 
32300000      211  8.4539289e-13      179923.06 
32310000      211  7.3753036e-13      179969.76 
32320000      211  7.2491784e-13      180009.94 
32330000      211   7.625945e-13      180051.36 
32340000      211  1.0291705e-12      180093.67 
32350000      211  1.0360394e-12      180138.07 
32360000      211  9.7344369e-13      180189.49 
32370000      211  8.0828491e-13      180234.57 
32380000      211  6.1885307e-13      180271.17 
32390000      211  7.3553667e-13      180311.61 
32400000      211  9.1076919e-13      180365.72 
32410000      211  9.9516414e-13      180419.25 
32420000      211  9.6110838e-13      180468.29 
32430000      211  9.4298053e-13      180514.05 
32440000      211  8.1351445e-13      180560.35 
32450000      211  7.2357164e-13      180605.56 
32460000      211   9.188946e-13      180643.78 
32470000      211  9.7311091e-13      180688.44 
32480000      211  1.0683262e-12      180739.87 
32490000      211    9.88163e-13      180786.06 
32500000      211  8.7937887e-13      180837.29 
32510000      211  6.0953658e-13      180883.73 
32520000      211  7.0366402e-13      180926.01 
32530000      211  7.0444879e-13      180970.25 
32540000      211  9.1852398e-13      181015.07 
32550000      211  9.4624369e-13      181064.79 
32560000      211  1.0190177e-12       181116.6 
32570000      211  9.1292445e-13      181173.17 
32580000      211  8.5238116e-13      181223.13 
32590000      211  7.5779824e-13      181265.03 
32600000      211  9.8149085e-13      181316.31 
32610000      211  1.0624453e-12      181365.55 
32620000      211  9.2890502e-13      181407.15 
32630000      211  7.8086348e-13       181449.1 
32640000      211  6.2662192e-13      181489.08 
32650000      211   7.174346e-13      181530.09 
32660000      211  7.3931833e-13       181571.4 
32670000      211  7.9832561e-13      181616.67 
32680000      211  9.2471744e-13      181658.37 
32690000      211  9.1892763e-13      181705.26 
32700000      211  7.6124872e-13       181746.3 
32710000      211  7.1793415e-13      181794.84 
32720000      211  9.0157782e-13      181839.83 
32730000      211  9.4897571e-13       181888.6 
32740000      211  1.1135714e-12      181938.78 
32750000      211  8.8600868e-13       181990.3 
32760000      211  8.5801456e-13      182034.01 
32770000      211  6.3389494e-13      182067.86 
32780000      211  6.9509544e-13      182107.14 
32790000      211  6.4946303e-13      182144.97 
32800000      211  7.5557375e-13      182189.65 
32810000      211  8.0142891e-13      182230.83 
32820000      211  9.9474752e-13      182280.35 
32830000      211  8.7630437e-13      182333.56 
32840000      211  8.8342264e-13      182376.12 
32850000      211  9.3050892e-13      182425.82 
32860000      211  9.6875307e-13      182474.43 
32870000      211  1.0948309e-12      182525.52 
32880000      211  8.8111939e-13      182575.69 
32890000      211  8.2553955e-13      182623.06 
32900000      211  6.3141205e-13      182667.86 
32910000      211  6.7888091e-13      182711.36 
32920000      211  6.5604783e-13      182753.36 
32930000      211  7.3228786e-13      182801.86 
32940000      211   8.549823e-13      183002.29 
32950000      211  9.0533109e-13      183282.64 
32960000      211  8.8878815e-13      183483.64 
32970000      211  8.9316115e-13      183711.38 
32980000      211  8.5291184e-13      183894.05 
32990000      211  8.8207401e-13      184136.76 
33000000      211   9.563892e-13      184352.45 
33010000      211  7.7117258e-13      184605.19 
33020000      211  8.8213371e-13      184833.02 
33030000      211  9.3280266e-13      184890.21 
33040000      211  1.0524708e-12         184951 
33050000      211  9.4436283e-13      185009.11 
33060000      211  8.6302691e-13      185065.67 
33070000      211  7.9882141e-13      185116.14 
33080000      211  9.2687361e-13      185166.62 
33090000      211   9.195153e-13      185218.87 
33100000      211  9.1846748e-13      185270.27 
33110000      211  9.4483001e-13      185325.82 
33120000      211  8.6808394e-13      185375.08 
33130000      211  1.0249388e-12       185428.2 
33140000      211  7.4469988e-13      185477.29 
33150000      211  7.4446336e-13      185523.29 
33160000      211  6.8026647e-13      185564.64 
33170000      211   7.274706e-13      185608.93 
33180000      211  6.7122174e-13      185652.23 
33190000      211  6.9976235e-13      185695.29 
33200000      211  7.9330227e-13      185743.04 
33210000      211  1.0440419e-12      185793.44 
33220000      211  1.0637039e-12      185845.76 
33230000      211  1.1773036e-12      185901.27 
33240000      211  9.8103792e-13      185957.19 
33250000      211  9.5749903e-13         186007 
33260000      211  9.7276968e-13      186060.23 
33270000      211  8.0555531e-13      186106.81 
33280000      211  7.3877804e-13      186154.07 
33290000      211  6.8945204e-13      186197.85 
33300000      211  7.2071867e-13       186240.8 
33310000      211  7.1696404e-13      186285.27 
33320000      211  7.2260951e-13       186328.3 
33330000      211  8.2951813e-13      186374.95 
33340000      211  8.8351854e-13       186424.8 
33350000      211  8.6566207e-13      186474.51 
33360000      211  8.7720293e-13       186525.4 
33370000      211  9.2411094e-13       186571.5 
33380000      211  9.5233114e-13      186624.33 
33390000      211  9.4514187e-13      186676.25 
33400000      211   8.176917e-13      186727.35 
33410000      211  7.0400378e-13      186774.46 
33420000      211  7.1911498e-13      186818.13 
33430000      211  7.2258751e-13      186862.44 
33440000      211  7.3376312e-13      186906.54 
33450000      211  7.6182599e-13      186950.72 
33460000      211  8.8412378e-13      187001.54 
33470000      211  1.0177809e-12      187051.34 
33480000      211  1.0428354e-12      187103.87 
33490000      211  1.0732588e-12       187155.8 
33500000      211  9.5189397e-13       187208.7 
33510000      211  9.4823786e-13      187257.79 
33520000      211  9.1647259e-13      187310.81 
33530000      211  8.6954097e-13      187358.19 
33540000      211  7.0155566e-13       187405.6 
33550000      211  7.3033162e-13      187450.42 
33560000      211  7.1650228e-13      187494.67 
33570000      211  6.9590848e-13      187538.77 
33580000      211  7.5244502e-13      187583.73 
33590000      211  8.3804078e-13      187626.41 
33600000      211  8.9097384e-13      187677.23 
33610000      211   1.009234e-12      187724.63 
33620000      211  1.0539208e-12      187775.15 
33630000      211   9.736085e-13      187824.71 
33640000      211  9.8568763e-13      187872.36 
33650000      211  8.1605929e-13      187920.12 
33660000      211  8.4956269e-13      187964.15 
33670000      211  6.7460624e-13      188007.01 
33680000      211  7.5525337e-13      188047.56 
33690000      211   7.477938e-13      188090.15 
33700000      211  6.9548415e-13      188132.13 
33710000      211   6.927425e-13      188171.24 
33720000      211  7.8362459e-13       188214.5 
33730000      211  8.4471019e-13      188259.98 
33740000      211  1.1266708e-12      188309.14 
33750000      211  1.3047808e-12       188363.7 
33760000      211  1.2122463e-12      188420.34 
33770000      211  1.1660178e-12      188474.69 
33780000      211  8.8648434e-13      188525.08 
33790000      211  7.8167318e-13      188568.97 
33800000      211  7.0350783e-13       188614.4 
33810000      211  7.2565016e-13      188658.92 
33820000      211  7.0947177e-13      188700.17 
33830000      211  6.8141521e-13      188741.53 
33840000      211  7.0056822e-13      188779.77 
33850000      211  8.0947404e-13      188819.89 
33860000      211  8.2129324e-13      188865.67 
33870000      211  9.4573238e-13      188908.86 
33880000      211  9.6443984e-13       188953.2 
33890000      211  8.9001284e-13      188996.02 
33900000      211  9.0594701e-13       189038.6 
33910000      211  8.9670413e-13      189080.48 
33920000      211  1.0662329e-12      189125.99 
33930000      211  1.0598121e-12      189175.38 
33940000      211   9.738731e-13      189231.07 
33950000      211  9.0064663e-13      189288.76 
33960000      211  6.8028536e-13      189339.96 
33970000      211   7.216132e-13      189379.15 
33980000      211  8.7195916e-13      189418.46 
33990000      211  9.0064761e-13      189466.23 
34000000      211  9.5707388e-13      189512.12 
34010000      211  9.9234727e-13      189564.85 
34020000      211  8.7818818e-13      189602.67 
34030000      211  7.8525566e-13      189648.37 
34040000      211  7.4725641e-13      189690.13 
34050000      211  7.6626755e-13      189729.77 
34060000      211  6.7576889e-13      189769.13 
34070000      211  7.3954913e-13      189809.37 
34080000      211  7.7857358e-13      189850.36 
34090000      211  8.6592692e-13      189906.42 
34100000      211  9.3803898e-13      189958.97 
34110000      211  9.7211376e-13      190010.02 
34120000      211  8.7709474e-13      190051.84 
34130000      211  8.3557142e-13      190099.09 
34140000      211  9.3343638e-13      190143.17 
34150000      211   9.900615e-13      190188.74 
34160000      211  9.1349005e-13      190233.29 
34170000      211  8.3086096e-13      190283.34 
34180000      211  8.1948253e-13      190331.69 
34190000      211  7.5939964e-13      190377.38 
34200000      211  7.2154259e-13      190441.15 
34210000      211  7.0138799e-13      190494.75 
34220000      211  6.2992785e-13       190548.5 
34230000      211  7.2231243e-13      190602.61 
34240000      211  9.3863943e-13      190645.66 
34250000      211  1.1550809e-12      190695.87 
34260000      211  1.2372574e-12      190753.29 
34270000      211  1.2099414e-12      190807.94 
34280000      211  1.0146261e-12      190859.56 
34290000      211  9.0899501e-13      190907.36 
34300000      211  7.4637528e-13      190951.52 
34310000      211  7.2187044e-13      190992.74 
34320000      211  6.8919508e-13      191037.18 
34330000      211  7.1999437e-13      191077.69 
34340000      211  6.9747056e-13      191116.88 
34350000      211  6.5937622e-13         191158 
34360000      211  7.6692298e-13      191198.27 
34370000      211  8.4341451e-13       191243.6 
34380000      211  8.7061497e-13      191285.05 
34390000      211  9.2559019e-13      191326.67 
34400000      211  1.0585982e-12      191376.29 
34410000      211    1.09847e-12      191426.58 
34420000      211  1.1799828e-12      191482.85 
34430000      211  1.0262956e-12      191533.61 
34440000      211  8.4140601e-13      191587.46 
34450000      211    6.81551e-13       191635.3 
34460000      211  7.1245819e-13      191675.04 
34470000      211  7.1259372e-13      191711.93 
34480000      211  6.8292587e-13      191752.58 
34490000      211  7.6548793e-13      191789.27 
34500000      211  8.9711732e-13      191830.89 
34510000      211  9.0403474e-13      191882.29 
34520000      211  1.0064441e-12      191933.82 
34530000      211  8.3557464e-13      191978.68 
34540000      211  8.1447571e-13      192016.95 
34550000      211  8.3823283e-13      192062.26 
34560000      211  8.7550028e-13      192105.06 
34570000      211  8.8355356e-13      192153.98 
34580000      211   1.005274e-12      192209.09 
34590000      211   9.186824e-13      192267.22 
34600000      211  8.3990182e-13      192329.23 
34610000      211   8.030765e-13      192373.68 
34620000      211  7.4178418e-13      192413.21 
34630000      211  9.3636287e-13      192457.64 
34640000      211  9.9679691e-13      192509.33 
34650000      211  1.0732981e-12      192554.19 
34660000      211  1.0163624e-12      192596.62 
34670000      211   1.068571e-12         192641 
34680000      211  9.0130271e-13      192691.09 
34690000      211  8.3218124e-13       192741.1 
34700000      211  7.4766032e-13      192787.29 
34710000      211  6.5989065e-13       192827.9 
34720000      211  7.9773697e-13      192871.66 
34730000      211  8.2933044e-13      192919.93 
34740000      211  8.9715054e-13      192970.52 
34750000      211  9.8332809e-13      193024.51 
34760000      211  9.5191735e-13      193072.75 
34770000      211  9.4072681e-13       193120.5 
34780000      211  9.3878168e-13      193168.28 
34790000      211  9.5585433e-13      193209.11 
34800000      211  1.0171982e-12      193261.37 
34810000      211   8.776794e-13      193299.27 
34820000      211  7.8469959e-13      193347.15 
34830000      211  7.7087007e-13      193389.18 
34840000      211  7.0904104e-13      193429.38 
34850000      211  7.4729754e-13      193470.16 
34860000      211   6.740803e-13      193510.37 
34870000      211  6.9128035e-13      193549.38 
34880000      211  8.0663596e-13      193590.96 
34890000      211  1.0041951e-12      193638.74 
34900000      211   1.217481e-12      193693.15 
34910000      211  1.2989881e-12      193744.82 
34920000      211  1.1084751e-12      193797.95 
34930000      211  9.6414035e-13      193845.34 
34940000      211  8.5540698e-13      193897.42 
34950000      211  8.3161615e-13       193945.5 
34960000      211  7.4241761e-13       193991.3 
34970000      211  7.2565333e-13      194030.16 
34980000      211  7.5646789e-13      194063.93 
34990000      211  7.1470906e-13      194102.52 
35000000      211  7.3130364e-13      194146.09 
35010000      211  8.0864541e-13      194177.86 
35020000      211  8.1120041e-13      194226.45 
35030000      211  9.6854032e-13       194270.5 
35040000      211  1.0752187e-12      194322.31 
35050000      211  1.0843225e-12      194370.17 
35060000      211  1.1849621e-12      194419.19 
35070000      211  1.1532633e-12       194472.9 
35080000      211  1.0388378e-12      194527.58 
35090000      211  7.3715587e-13      194580.87 
35100000      211  7.7574462e-13      194623.48 
35110000      211  7.4688571e-13      194668.93 
35120000      211  7.0396372e-13      194712.17 
35130000      211   7.078438e-13      194755.11 
35140000      211  8.1800894e-13      194799.27 
35150000      211  8.3130019e-13      194848.32 
35160000      211  1.0090442e-12      194889.12 
35170000      211  1.1614815e-12       194938.7 
35180000      211  9.1715223e-13      194990.14 
